Formula,Ehull
PbCd2O4,0.047502133113135336
PbCl2O4,0.20717596636281232
PbCo2O4,0.12337598156590879
PbCr2O4,0.211948456281692
PbCu2O4,0.12178862237752064
PbDy2O4,0.16616565959676066
PbEr2O4,0.18137147982448543
PbEu2O4,0.10426943526781507
PbFe2O4,0.21249159528106798
PbGa2O4,0.1115399194357316
PbGd2O4,0.15724589974109904
PbHf2O4,0.45653526296528923
PbHg2O4,0.05326810461693565
PbHo2O4,0.170369912989214
PbIn2O4,0.14524715549398692
PbIr2O4,0.3124857767549143
PbLa2O4,0.13740778147427868
PbLu2O4,0.16880057271718574
PbMg2O4,0.06897300018317853
PbMn2O4,0.1289144436981804
PbMo2O4,0.5781428612740367
PbNb2O4,0.2715836551146271
PbNd2O4,0.1493367960869696
PbNi2O4,0.3381707954947455
PbOs2O4,0.27897625733602016
PbP2O4,0.17869821327522128
PbPb2O4,0.08993800961271425
PbPd2O4,0.18839746980559902
PbPr2O4,0.14004617017897392
PbPt2O4,0.2522694937340413
PbRh2O4,0.19692264404145465
PbRu2O4,0.2898704661973257
PbSb2O4,0.08862888414726022
PbSc2O4,0.1671088704916155
PbSi2O4,0.3540056860241396
PbSm2O4,0.1613238319085557
PbSn2O4,0.10792267142590006
PbSr2O4,0.10301629449143501
PbTb2O4,0.1687488506117969
PbTc2O4,0.29427826965943193
PbTl2O4,0.026649138193576505
PbTm2O4,0.16240839944306096
PbV2O4,0.15654475781793487
PbW2O4,1.0760157129076457
PbY2O4,0.17986355882507166
PbZn2O4,0.08409586798920632
PbZr2O4,0.3887206907353118
PdAg2O4,0.07211717113589966
PdAl2O4,0.21148610443274585
PdAs2O4,0.1041430749265535
PdAu2O4,0.07973646084527708
PdBe2O4,0.13764256164886923
PdBi2O4,0.12035129521433685
PdBr2O4,0.23709599065214038
PdCa2O4,0.04450574533581175
PdCd2O4,0.0
PdCe2O4,0.4154355493225408
PdCl2O4,0.24774698823474317
PdCo2O4,0.06244114314961635
PdCr2O4,0.21072569223906967
PdCu2O4,0.03182089304494351
PdDy2O4,0.18992928071591564
PdEr2O4,0.1846114477738121
PdEu2O4,0.12019536368741157
PdFe2O4,0.19912196274031313
PdGa2O4,0.14534446081323082
PdGd2O4,0.17964544892748435
PdGe2O4,0.2874719566379884
PdHf2O4,0.46124779456983234
PdHg2O4,0.03944237702557363
PdHo2O4,0.1790976777265918
PdIn2O4,0.1539830603762109
PdIr2O4,0.43492221400533904
PdLa2O4,0.16079047015483994
PdLu2O4,0.19784678825442903
PdMg2O4,0.0
PdMn2O4,0.10364013472324363
PdMo2O4,0.4378461967512237
PdNb2O4,0.3065313154749898
PdNd2O4,0.17868087231663843
PdNi2O4,0.2655068575347057
PdOs2O4,0.292413880983311
PdP2O4,0.2985441006942544
PdPb2O4,0.07220973868910985
PdPd2O4,0.2275016928677811
PdPr2O4,0.16343583102595716
PdPt2O4,0.186899364772116
PdRe2O4,0.4036241818057942
PdRh2O4,0.1969494099672744
PdRu2O4,0.39160541820674144
PdSb2O4,0.2050825740336535
PdSc2O4,0.19692651621753576
PdSi2O4,0.535991489372698
PdSm2O4,0.16481188219081755
PdSn2O4,0.3321648339858134
PdSr2O4,0.0826140221402678
PdTa2O4,0.3556460163226287
PdTb2O4,0.16597783108055264
PdTc2O4,0.3864571844559306
PdTi2O4,0.3729580931743275
PdTl2O4,0.0709668264332457
PdTm2O4,0.20347224834634403
PdV2O4,0.2654467585547442
PdW2O4,0.8486339162097591
PdY2O4,0.1654175209324169
PdZn2O4,0.021843659582551744
PdZr2O4,0.424558494156015
PrAg2O4,0.16703914387712082
PrAl2O4,0.19558496408159964
PrAu2O4,0.11980137918426514
PrBa2O4,0.111941201455803
PrBe2O4,0.27678596625445273
PrBi2O4,0.11348560631664828
PrCa2O4,0.1712881027672042
PrCd2O4,0.16331591488257668
PrCo2O4,0.18686623296784077
PrCr2O4,0.36789779971611125
PrCu2O4,0.2179421616895718
PrDy2O4,0.06320849676106732
PrEr2O4,0.08897807641140254
PrEu2O4,0.031596228460301745
PrFe2O4,0.31033196336370583
PrGa2O4,0.20893179528280825
PrGd2O4,0.013229403076108426
PrHf2O4,0.2895677964799628
PrHg2O4,0.13045714153211474
PrHo2O4,0.06422580839117842
PrIn2O4,0.11243057862652694
PrIr2O4,0.36936110758329477
PrLa2O4,0.0046736565818790154
PrLu2O4,0.08778091521606868
PrMg2O4,0.3036575878070007
PrMn2O4,0.17341959496276615
PrMo2O4,0.8144859969494522
PrNb2O4,0.24665631913035746
PrNd2O4,0.012566656105033047
PrNi2O4,0.45185691902850866
PrPb2O4,0.07556664989931328
PrPd2O4,0.20423208845963092
PrRe2O4,0.30681066293752224
PrRh2O4,0.2397226007763038
PrRu2O4,0.3786973762960848
PrSc2O4,0.12327209550021401
PrSe2O4,0.14842820359086595
PrSi2O4,0.35080008530428053
PrSm2O4,0.06293291038604032
PrSn2O4,0.22487825221212354
PrSr2O4,0.12114138894016513
PrTa2O4,0.26933614478665113
PrTb2O4,0.039789476146866676
PrTc2O4,0.41995797846249516
PrTi2O4,0.27718627208730595
PrTl2O4,0.046945803363080074
PrTm2O4,0.14465439755877973
PrV2O4,0.3315261783409902
PrW2O4,1.4254589366064518
PrY2O4,0.052751808735020944
PrZn2O4,0.16168306636908003
PrZr2O4,0.2674186114396555
PtAg2O4,0.05146638630040279
PtAl2O4,0.23978572415035693
PtAs2O4,0.1247129047221236
PtAu2O4,0.06892615427927762
PtBe2O4,0.1863269543599939
PtBi2O4,0.15184582736116692
PtCa2O4,0.07556336477524805
PtCd2O4,0.021948617137509174
PtCe2O4,0.4546429371681988
PtCo2O4,0.11596969296440474
PtCr2O4,0.2992432866043231
PtCu2O4,0.06684788736935587
PtEu2O4,0.14629492382701237
PtFe2O4,0.22132541556801666
PtGa2O4,0.19622872830359395
PtHg2O4,0.04491124704308813
PtIn2O4,0.2534606746260142
PtIr2O4,0.3970858405598454
PtK2O4,0.06895417120311986
PtLi2O4,0.2099216782623854
PtMg2O4,0.07770854764114166
PtMn2O4,0.11561636134720477
PtNa2O4,0.1331499296834986
PtNb2O4,0.3829548708754107
PtNi2O4,0.31780890350791857
PtPb2O4,0.08988258773482283
PtPd2O4,0.17515588179746278
PtPt2O4,0.552696002527691
PtRh2O4,0.2650574818569389
PtRu2O4,0.4700549581512439
PtSc2O4,0.24893890418588427
PtSi2O4,0.49171756691298274
PtSn2O4,0.38682416787277063
PtSr2O4,0.08816075248415345
PtTa2O4,0.3893663132907328
PtTi2O4,0.465325866092158
PtTl2O4,0.07471136715473836
PtV2O4,0.33512573605526086
PtZn2O4,0.06216129918109292
PtZr2O4,0.5327355482808063
RbAu2O4,0.1658480511123237
RbBi2O4,0.07577424668643751
RbCe2O4,0.11913758336492375
RbCu2O4,0.24938254489535616
RbEr2O4,0.20174704886349293
RbFe2O4,0.23074360350303014
RbHf2O4,0.2356374727567907
RbIr2O4,0.13008775840605402
RbMo2O4,0.5640621126007801
RbPb2O4,0.08970778001005808
RbRh2O4,0.04118202285225259
RbRu2O4,0.24359968653123598
RbSn2O4,0.15558660562651294
RbTe2O4,0.027848167500938992
RbW2O4,1.0083696481623594
RbZr2O4,0.20243394569083328
ReAl2O4,0.2898963728587338
ReAs2O4,0.2569597279797984
ReBe2O4,0.16883641732829613
ReBi2O4,0.15261788961768374
ReCa2O4,0.14000454198088175
ReCd2O4,0.08449386374327084
ReCo2O4,0.47747662567168003
ReCr2O4,0.32734905628785427
ReCu2O4,0.25232642190056875
ReDy2O4,0.37351885472853397
ReEr2O4,0.3091287280360415
ReEu2O4,0.2171207551144878
ReFe2O4,0.4684304126621699
ReGa2O4,0.21034792960450321
ReGd2O4,0.3639146967570621
ReGe2O4,0.214372152066014
ReHf2O4,0.5466954674722171
ReHo2O4,0.28329041119775056
ReIr2O4,0.5419369941128531
ReLa2O4,0.2663082248619357
ReLu2O4,0.28440807381067224
ReMg2O4,0.07668569328525532
ReMn2O4,0.19993000482580214
ReMo2O4,0.9467286432714914
ReNb2O4,0.3900724996594853
ReNi2O4,0.6942050878473003
ReOs2O4,0.5110523673298566
RePd2O4,0.3373958204758889
RePt2O4,0.44020240721929493
ReRe2O4,0.7009108982898233
ReRh2O4,0.3879715608268661
ReRu2O4,0.43979176264075903
ReSc2O4,0.39759042082902063
ReSm2O4,0.38804481149783143
ReSr2O4,0.1974129209883948
ReTa2O4,0.438959958878101
ReTb2O4,0.3123997422697702
ReTc2O4,0.2968559542151521
ReTi2O4,0.5481849397172667
ReTm2O4,0.4044787439964068
ReV2O4,0.2643312069449255
ReY2O4,0.2735686497026748
ReZn2O4,0.09513067666850006
ReZr2O4,0.7479713976367233
RhAg2O4,0.124828145820433
RhAl2O4,0.18171889408597508
RhAs2O4,0.15622748642887707
RhAu2O4,0.11646273626793047
RhB2O4,0.2822348514951658
RhBa2O4,0.14138538013112267
RhBe2O4,0.21164093950062313
RhBi2O4,0.15542140761443157
RhBr2O4,0.2800282684128934
RhCa2O4,0.0638629984888226
RhCd2O4,0.06110345973499953
RhCe2O4,0.5107278813716203
RhCo2O4,0.12827403865584586
RhCr2O4,0.268345605095341
RhCu2O4,0.11255992228973621
RhDy2O4,0.27681251455318456
RhEr2O4,0.2761436184960244
RhEu2O4,0.07932687090958446
RhFe2O4,0.19003240791322717
RhGa2O4,0.11050719373114326
RhGd2O4,0.21435704520403043
RhGe2O4,0.35707173452636365
RhHf2O4,0.6246720347953634
RhHg2O4,0.10832612773641781
RhHo2O4,0.27121799680775194
RhIn2O4,0.13049940615756128
RhIr2O4,0.3409842589900318
RhLa2O4,0.21962927865338244
RhLu2O4,0.2611752005215715
RhMg2O4,0.07629693697508078
RhMn2O4,0.051072456468816085
RhMo2O4,0.5842488252124429
RhNb2O4,0.47689754943796103
RhNd2O4,0.2532263036565938
RhNi2O4,0.3671230587393941
RhOs2O4,0.3017634583084723
RhPb2O4,0.06126454232806555
RhPd2O4,0.1918192433925503
RhPr2O4,0.22822341032971494
RhPt2O4,0.18349974954265758
RhRe2O4,0.39127908943557266
RhRh2O4,0.08028616619675244
RhRu2O4,0.29218688261864756
RhSb2O4,0.26200797710856527
RhSc2O4,0.21880142544748082
RhSm2O4,0.28021932593925136
RhSn2O4,0.3565440536537654
RhSr2O4,0.1180819304995051
RhTa2O4,0.45896262275280897
RhTb2O4,0.22920224401946054
RhTe2O4,0.20081075627551215
RhTi2O4,0.5178440587719209
RhTl2O4,0.00018799326902385616
RhTm2O4,0.28793683881723364
RhV2O4,0.2531885530953737
RhY2O4,0.2306767972464847
RhZn2O4,0.09651237628022447
RhZr2O4,0.5770247744883115
RuAg2O4,0.0982842622390967
RuAl2O4,0.25513463007517245
RuAs2O4,0.21097113572702586
RuAu2O4,0.15183226788531723
RuB2O4,0.33089941425721925
RuBa2O4,0.18427211759322493
RuBe2O4,0.1955901604028094
RuBi2O4,0.20092472415334584
RuCa2O4,0.08365908840978697
RuCd2O4,0.09094206248675096
RuCe2O4,0.5315718904524136
RuCl2O4,0.19576648424740384
RuCo2O4,0.1458587872250785
RuCr2O4,0.2889810449444168
RuCu2O4,0.1253874794929537
RuEr2O4,0.37754602966461537
RuEu2O4,0.13330397742145372
RuFe2O4,0.25824299189116307
RuGa2O4,0.1997433538305824
RuGd2O4,0.3261452748833946
RuGe2O4,0.3364995774654984
RuHf2O4,0.7474554736195245
RuHg2O4,0.11120773888642432
RuHo2O4,0.33279784140310387
RuIn2O4,0.236237355406546
RuIr2O4,0.4264564499136396
RuK2O4,0.2459507201565545
RuLa2O4,0.2905620997320293
RuLi2O4,0.1414371845718927
RuLu2O4,0.353508968802994
RuMg2O4,0.11600987388420148
RuMn2O4,0.07245045163615771
RuMo2O4,0.6876679720624868
RuNa2O4,0.17431561453194266
RuNb2O4,0.43774219216130916
RuNd2O4,0.32222687964228136
RuNi2O4,0.393301835488443
RuOs2O4,0.38494583170617336
RuPb2O4,0.12774054271552426
RuPd2O4,0.23818503986866002
RuPr2O4,0.34657502763122405
RuPt2O4,0.2851058527078667
RuRb2O4,0.187874060937971
RuRe2O4,0.44091875807905545
RuRh2O4,0.17204225587728583
RuSb2O4,0.24467449254198392
RuSc2O4,0.32597483105636016
RuSe2O4,0.20815412917105736
RuSm2O4,0.3151545815687937
RuSn2O4,0.38236618538969047
RuSr2O4,0.1491624371059288
RuTa2O4,0.4464327688051828
RuTe2O4,0.2252651146732081
RuTi2O4,0.5518830476505237
RuTl2O4,0.04199222262562241
RuTm2O4,0.37232229528524563
RuV2O4,0.2745032790685329
RuW2O4,1.1237263016262045
RuY2O4,0.330628153139374
RuZn2O4,0.13091699271993296
RuZr2O4,0.6799102683072
SAl2O4,0.3238965310911217
SCo2O4,0.3652707985810766
SCr2O4,0.36827977237409293
SCu2O4,0.11781702282844542
SDy2O4,0.255036384593188
SEr2O4,0.23159152323513688
SFe2O4,0.4397759736740863
SHf2O4,0.31886068615771634
SHo2O4,0.2571382826444344
SIr2O4,0.30957937397602464
SLu2O4,0.24364105747724718
SMg2O4,0.20361362520172577
SMn2O4,0.19954582659124842
SMo2O4,0.5627705920083939
SNb2O4,0.18734822434024423
SNi2O4,0.5252596418731832
SRe2O4,0.36462105589964544
SRu2O4,0.3337951646232158
SSb2O4,0.1714050093722399
SSc2O4,0.2846528687352565
STa2O4,0.21637393488571455
STi2O4,0.26253173511334715
STm2O4,0.2436462164686084
SV2O4,0.3135210416977534
SZn2O4,0.19119131663551414
SZr2O4,0.3130964138560728
SbAg2O4,0.11056905029524167
SbAl2O4,0.2176046907992859
SbAu2O4,0.10617654602303439
SbBa2O4,0.14281096290924822
SbBe2O4,0.20827017334934084
SbBi2O4,0.10539573946932901
SbCa2O4,0.09479780773922908
SbCd2O4,0.05244087539726294
SbCo2O4,0.2494914246137947
SbCr2O4,0.2643729275889486
SbCu2O4,0.1008935500524979
SbDy2O4,0.22564818968603273
SbEr2O4,0.20216919381781384
SbEu2O4,0.07111944558553773
SbFe2O4,0.33412662347164535
SbGa2O4,0.18258956561677575
SbGd2O4,0.2087822030160531
SbGe2O4,0.13299092833420012
SbHf2O4,0.3949409892446294
SbHg2O4,0.1346726416356958
SbHo2O4,0.2591057810612476
SbIn2O4,0.14904437547362104
SbIr2O4,0.36682204498660376
SbLa2O4,0.18200585390622415
SbLu2O4,0.26077761890249906
SbMg2O4,0.13039801821627517
SbMn2O4,0.0687437457482174
SbMo2O4,0.6496864586236653
SbNb2O4,0.2706439969766201
SbNd2O4,0.194276606508903
SbNi2O4,0.4044459101424156
SbOs2O4,0.40688042111335854
SbPb2O4,0.0968739680731332
SbPd2O4,0.19429266751366203
SbPr2O4,0.20668929513012912
SbRh2O4,0.27772516643918443
SbRu2O4,0.3000605515637016
SbSb2O4,0.39243393697138806
SbSc2O4,0.23461362168001632
SbSi2O4,0.4993523036315306
SbSm2O4,0.2093465957393974
SbSn2O4,0.15011161308076204
SbSr2O4,0.08036743621436582
SbTb2O4,0.21912881744239865
SbTc2O4,0.2926739620653347
SbTe2O4,0.13393772500861356
SbTl2O4,0.10239674677057398
SbTm2O4,0.21380856760130484
SbV2O4,0.18947464125320046
SbY2O4,0.2287101059048089
SbZn2O4,0.11709991008907217
SbZr2O4,0.36656508284767675
ScAg2O4,0.17118169369453096
ScAl2O4,0.16189431628850226
ScAs2O4,0.13977626379250374
ScAu2O4,0.13047339452806206
ScB2O4,0.19753154769433579
ScBi2O4,0.13055192927326154
ScCe2O4,0.0427148632380252
ScCl2O4,0.2726689668059281
ScCo2O4,0.1114420482153724
ScCr2O4,0.22580200093698544
ScCu2O4,0.1239119090530787
ScDy2O4,0.07340991350528547
ScEr2O4,0.08826998040772338
ScEu2O4,0.012441119940476142
ScFe2O4,0.1645673484150194
ScGa2O4,0.14520243688724133
ScGd2O4,0.029628456135347037
ScGe2O4,0.1612551596483467
ScHf2O4,0.20728411090699161
ScHo2O4,0.06742176608494255
ScIn2O4,0.0713374966376632
ScIr2O4,0.406996509391397
ScLa2O4,0.06866347444140786
ScLu2O4,0.07058499868669443
ScMn2O4,0.02787091714428236
ScMo2O4,0.7067382953697008
ScNb2O4,0.19683588821369824
ScNd2O4,0.07661397198183018
ScNi2O4,0.3875006270579
ScOs2O4,0.3913589697797022
ScPb2O4,0.06461654765605473
ScPd2O4,0.17123521880099624
ScPr2O4,0.05024257978958957
ScPt2O4,0.19767393805565714
ScRe2O4,0.3050340114140333
ScRh2O4,0.20913648874600899
ScRu2O4,0.3430438703430365
ScSb2O4,0.1265335642520231
ScSc2O4,0.026786357642530234
ScSe2O4,0.17700494368522168
ScSi2O4,0.38205148833542246
ScSm2O4,0.09306909709741618
ScSn2O4,0.13587314433703934
ScSr2O4,0.10817839324372969
ScTa2O4,0.232467118052611
ScTb2O4,0.07293576445047734
ScTc2O4,0.37021348336280724
ScTe2O4,0.13584219216980564
ScTi2O4,0.10945334190976475
ScTl2O4,0.02966157897799615
ScTm2O4,0.1265548315453202
ScV2O4,0.16306716681718925
ScW2O4,1.3029008034962288
ScY2O4,0.05014891103582997
ScZn2O4,0.14399824120379368
ScZr2O4,0.16995441679340217
SeAg2O4,0.11675418399985915
SeAl2O4,0.24249748509107505
SeAs2O4,0.12622987719484158
SeAu2O4,0.08359560234287589
SeBe2O4,0.18770663597150072
SeBi2O4,0.15168613013646048
SeCd2O4,0.096383247922744
SeCl2O4,0.2842938628409404
SeCo2O4,0.10107784204408699
SeCr2O4,0.23230182210918837
SeCu2O4,0.10697996784717301
SeDy2O4,0.15480191930549214
SeEr2O4,0.18205214287513538
SeEu2O4,0.10757483774177423
SeFe2O4,0.19721750159273377
SeGa2O4,0.21494381398013918
SeGd2O4,0.12738809822519492
SeHf2O4,0.27635599939045363
SeHo2O4,0.21969518931362053
SeIn2O4,0.19819754363256425
SeIr2O4,0.2682313170823072
SeLa2O4,0.14261949404862673
SeLi2O4,0.3283887358610835
SeLu2O4,0.16568882888686787
SeMg2O4,0.0924625900877265
SeMn2O4,0.12502286227159498
SeMo2O4,0.44496202335924107
SeNa2O4,0.2589212858118577
SeNb2O4,0.1603399576054425
SeNd2O4,0.17758309646824166
SeNi2O4,0.2514863516324004
SeOs2O4,0.22027519892986636
SePd2O4,0.15827410320459645
SePr2O4,0.16292044149629437
SeRh2O4,0.19430303393359605
SeRu2O4,0.26551406665003174
SeS2O4,0.10931643268004976
SeSc2O4,0.23151965281694142
SeSe2O4,0.5967671110444499
SeSi2O4,0.30828144412330616
SeSm2O4,0.13493632966103863
SeSn2O4,0.2966280798852319
SeTa2O4,0.1894649435501652
SeTb2O4,0.20683794471052153
SeTi2O4,0.19093563497766297
SeTm2O4,0.17244326620234496
SeV2O4,0.21392095852460802
SeY2O4,0.17361650341577217
SeZn2O4,0.12208738141242659
SeZr2O4,0.2902760033334282
SiAg2O4,0.2039011167345537
SiAl2O4,0.2894556677465836
SiAu2O4,0.23543346585934
SiBe2O4,0.24989941471830424
SiBi2O4,0.2686533529710555
SiCa2O4,0.2833686416061125
SiCd2O4,0.1804193985734397
SiCe2O4,0.2845310074241887
SiCo2O4,0.15067926325996694
SiCr2O4,0.41230847174298635
SiCu2O4,0.20642103709733117
SiDy2O4,0.3532615645478394
SiEu2O4,0.25989080843575607
SiFe2O4,0.3204576534842154
SiGa2O4,0.4481551690697083
SiGd2O4,0.4275719069440207
SiHf2O4,0.4877926442150482
SiHg2O4,0.20452666454984314
SiHo2O4,0.49779499723945353
SiLa2O4,0.4329880277310494
SiLu2O4,0.39486969484278056
SiMg2O4,0.19914499054759816
SiMn2O4,0.17851031900198233
SiMo2O4,0.9260557309723119
SiNb2O4,0.295476697308267
SiNd2O4,0.43413489785266446
SiNi2O4,0.3566712454825236
SiOs2O4,0.5063355138931085
SiPb2O4,0.14150397560812955
SiPd2O4,0.3416216914289629
SiPt2O4,0.34982182089361835
SiRh2O4,0.28611092570003116
SiRu2O4,0.4625791492986986
SiSc2O4,0.3434739322667397
SiSm2O4,0.37538626417441634
SiSn2O4,0.18440219715876793
SiSr2O4,0.25058254965850146
SiTa2O4,0.39790418039505404
SiTe2O4,0.17361205145746883
SiTi2O4,0.28975064139760676
SiV2O4,0.360234737225138
SiW2O4,1.5659644864198246
SiZn2O4,0.17491377883455161
SiZr2O4,0.5065163483903099
SmAg2O4,0.17964960092838567
SmAl2O4,0.24858665734042518
SmAu2O4,0.1763934641492293
SmBa2O4,0.09216079494421514
SmBe2O4,0.28546261224784164
SmBi2O4,0.10998595905190811
SmCa2O4,0.11906098847806224
SmCd2O4,0.1286760275482175
SmCo2O4,0.2219941194729147
SmCr2O4,0.3471334305851004
SmCu2O4,0.20778727641252992
SmDy2O4,0.08884428485982276
SmEr2O4,0.10866288968562365
SmEu2O4,0.01783761773676673
SmFe2O4,0.2673559356608921
SmGa2O4,0.2276315349228888
SmGd2O4,0.02589647478824375
SmGe2O4,0.1737780892503631
SmHf2O4,0.3380612899164337
SmHg2O4,0.16137524002860548
SmHo2O4,0.08217166991523328
SmIn2O4,0.0989870409043121
SmIr2O4,0.3670666972924348
SmLa2O4,0.017771093272690663
SmLu2O4,0.10171292011285082
SmMg2O4,0.24052075014232965
SmMn2O4,0.1500817078708776
SmMo2O4,0.7766828851013612
SmNb2O4,0.22942276252982197
SmNd2O4,0.038504451044587995
SmNi2O4,0.5026665286408099
SmOs2O4,0.3413452384866549
SmPb2O4,0.062072695776277165
SmPd2O4,0.13335948897455552
SmPr2O4,0.0
SmRe2O4,0.23415631880380516
SmRh2O4,0.25429658832901136
SmRu2O4,0.38222122099216094
SmSb2O4,0.19667338186504946
SmSc2O4,0.10120306585084293
SmSe2O4,0.18380944439982194
SmSi2O4,0.318647466437997
SmSn2O4,0.2264560883495328
SmSr2O4,0.07446018606256999
SmTa2O4,0.315804727550832
SmTb2O4,0.07184793051157534
SmTc2O4,0.44591514334188
SmTe2O4,0.1505694175840846
SmTi2O4,0.24587634575095407
SmTl2O4,0.03664353596002634
SmTm2O4,0.1675725680539255
SmV2O4,0.2902652807114565
SmW2O4,1.4250848646449796
SmY2O4,0.06931857858889856
SmZn2O4,0.19500456641554198
SmZr2O4,0.2587230437493204
SnAg2O4,0.11156362444177326
SnAl2O4,0.15954544951916105
SnAu2O4,0.1549133691166169
SnBa2O4,0.18125357631668937
SnBe2O4,0.22033021782627316
SnBi2O4,0.18025083779103568
SnCa2O4,0.09504759520592376
SnCd2O4,0.04639046462306595
SnCe2O4,0.30757103478412606
SnCo2O4,0.12513373079046453
SnCr2O4,0.28499013593464717
SnCu2O4,0.14476838982145424
SnEu2O4,0.05297533363765439
SnFe2O4,0.2512967468816738
SnGa2O4,0.12864036140181145
SnGe2O4,0.10957370440503933
SnHg2O4,0.08622996245934367
SnIn2O4,0.14313435832597232
SnIr2O4,0.40905882548950157
SnLu2O4,0.21711032428130483
SnMg2O4,0.07358413189214641
SnMn2O4,0.05440504812617064
SnMo2O4,0.7099112869757676
SnNb2O4,0.23034463598586186
SnNi2O4,0.33223782589877526
SnOs2O4,0.4773274559324179
SnPb2O4,0.12185479869489946
SnPd2O4,0.23333282088112295
SnPt2O4,0.2904706150890579
SnRh2O4,0.3025772727307743
SnRu2O4,0.37434216429157363
SnSb2O4,0.12017170995318605
SnSc2O4,0.2288777175715584
SnSn2O4,0.2500448694372466
SnSr2O4,0.11977768867526528
SnTa2O4,0.263608877167373
SnTc2O4,0.3643011450375129
SnTi2O4,0.2833339754265394
SnTl2O4,0.0759482733560386
SnTm2O4,0.20564465439562962
SnV2O4,0.1805010906056177
SnZn2O4,0.0784626291158661
SrAg2O4,0.15398020488578368
SrAs2O4,0.12844219117172972
SrBi2O4,0.10392143170269019
SrCa2O4,0.25479185949489835
SrCd2O4,0.26721339171727543
SrCe2O4,0.06449372851928903
SrCo2O4,0.16192921703480945
SrCr2O4,0.3478850480113378
SrCu2O4,0.11020788278577776
SrDy2O4,0.11981770896527966
SrEr2O4,0.12429145733814373
SrEu2O4,0.11636560283123565
SrFe2O4,0.1672148356720493
SrGa2O4,0.16491206536728864
SrGd2O4,0.09785873972516868
SrGe2O4,0.1479104595837688
SrHf2O4,0.36240548936402917
SrHg2O4,0.2702638071321313
SrHo2O4,0.11740610382565198
SrIn2O4,0.12838336278802487
SrIr2O4,0.24477996264772806
SrLa2O4,0.07556939398641216
SrLu2O4,0.13670308396328856
SrMn2O4,0.1463937355447733