Formula,Ehull
InMo2O4,0.6815172048341918
InNb2O4,0.2287050384154039
InNd2O4,0.1583361801285701
InNi2O4,0.35518702787230616
InOs2O4,0.3801101582142685
InPb2O4,0.06977997418006066
InPd2O4,0.15244656448069094
InPr2O4,0.1402843548513184
InPt2O4,0.27080756513845294
InRe2O4,0.20247105665248455
InRh2O4,0.21106866049095352
InRu2O4,0.3273508750079017
InSb2O4,0.12769792267049151
InSc2O4,0.1986470540901042
InSm2O4,0.15678673055145698
InSn2O4,0.11253164771140778
InSr2O4,0.10969362339405464
InTa2O4,0.22991579557089992
InTb2O4,0.1685495038793512
InTc2O4,0.3056445973483699
InTi2O4,0.17070732349793527
InTl2O4,0.01662803078579067
InTm2O4,0.19296860559238027
InV2O4,0.1988779788513675
InW2O4,1.090252350339692
InY2O4,0.17006890084927928
InZn2O4,0.13207935954043748
InZr2O4,0.3071510497696668
IrAg2O4,0.1059219581291968
IrAl2O4,0.34021313496243
IrAs2O4,0.2528513888679882
IrAu2O4,0.1354717137972541
IrB2O4,0.3608336344241394
IrBa2O4,0.1351564876074649
IrBe2O4,0.2518338869628387
IrBi2O4,0.24462614775375524
IrCa2O4,0.08156068492840873
IrCd2O4,0.08574347303373031
IrCe2O4,0.5144495231106063
IrCo2O4,0.17922188352442525
IrCr2O4,0.3312382929796529
IrCu2O4,0.15456546394868997
IrDy2O4,0.3222613119955806
IrEu2O4,0.1483369834457413
IrFe2O4,0.2792829270699215
IrGa2O4,0.27635763243786116
IrGd2O4,0.3053419152388308
IrGe2O4,0.454519486910149
IrHf2O4,0.7787328338691033
IrHg2O4,0.11695107700510565
IrHo2O4,0.3349674829566114
IrIn2O4,0.27410012626185143
IrK2O4,0.09342211205444872
IrLa2O4,0.27882559766994497
IrLi2O4,0.09425545254368117
IrLu2O4,0.3368560302783292
IrMg2O4,0.12273377663982998
IrMn2O4,0.11120251924531921
IrMo2O4,0.6932660378584989
IrNa2O4,0.063789476980876
IrNb2O4,0.5603249479688284
IrNd2O4,0.2945749591596334
IrNi2O4,0.38735648089072683
IrOs2O4,0.36322755255856976
IrPb2O4,0.1367566063585448
IrPd2O4,0.2409524413106121
IrPr2O4,0.30946443397017376
IrPt2O4,0.2561826902221256
IrRh2O4,0.20561843592400297
IrRu2O4,0.3992859290165711
IrSb2O4,0.3020176201022293
IrSc2O4,0.3531886168865981
IrSm2O4,0.3277237503711019
IrSn2O4,0.40124623316340724
IrSr2O4,0.11381373790823712
IrTa2O4,0.5275197538171827
IrTb2O4,0.3063276800286223
IrTi2O4,0.6059245502141124
IrTl2O4,0.041115274042185845
IrTm2O4,0.35895990985731085
IrV2O4,0.371477637249769
IrW2O4,1.0575938559517102
IrY2O4,0.34899169653476214
IrZn2O4,0.14872803729821182
IrZr2O4,0.6991240310235494
KAu2O4,0.15909501924679592
KBi2O4,0.07524552087835001
KCe2O4,0.06006394828194761
KCo2O4,0.21883682810562366
KCr2O4,0.2509923366474265
KCu2O4,0.23067026293973125
KDy2O4,0.20347134979038461
KEr2O4,0.20174341556967423
KEu2O4,0.18689391254255305
KFe2O4,0.22464248594962744
KGd2O4,0.17489498371958767
KGe2O4,0.12219455121613709
KHf2O4,0.20904231958630604
KIr2O4,0.2397984121412602
KLa2O4,0.1283614437049696
KMo2O4,0.5017357113193137
KNb2O4,0.1702156597697435
KNd2O4,0.17504893814529687
KNi2O4,0.6171516847929421
KOs2O4,0.28624280990920603
KPb2O4,0.0688314116856743
KPr2O4,0.18384169407415296
KPt2O4,0.1477649949530031
KRh2O4,0.0387382140186423
KRu2O4,0.24035854182957284
KSi2O4,0.22448651744417703
KSm2O4,0.15998729876078688
KSn2O4,0.15021869040187585
KTa2O4,0.26163545697597357
KTb2O4,0.20635847402790564
KTc2O4,0.30459538793021323
KTe2O4,0.09068999187239335
KTi2O4,0.11663652499993216
KV2O4,0.17753188745326387
KW2O4,0.9651463684097283
KY2O4,0.20154215611704807
KZr2O4,0.157733051029318
LaAg2O4,0.1513915102800949
LaAl2O4,0.1677077249096639
LaAu2O4,0.1856753637869959
LaBa2O4,0.1091138645783083
LaBe2O4,0.25390944202545107
LaBi2O4,0.10546906464066641
LaCa2O4,0.1359146976595067
LaCd2O4,0.14499645469680988
LaCo2O4,0.16652413310237524
LaCr2O4,0.30075538738880425
LaCu2O4,0.16671706719189672
LaDy2O4,0.08157505395222309
LaEr2O4,0.10001250690967645
LaEu2O4,0.03517728880821558
LaFe2O4,0.32769624495635075
LaGa2O4,0.19811368730419954
LaGd2O4,0.022131897163559344
LaHf2O4,0.34470300900951933
LaHg2O4,0.14225115684591838
LaHo2O4,0.08031722579810108
LaIn2O4,0.12233784750089516
LaIr2O4,0.31161344676796343
LaLu2O4,0.10382920247470473
LaMg2O4,0.2770054180887769
LaMn2O4,0.2590987156802971
LaMo2O4,0.8329623207729702
LaNb2O4,0.274364720373109
LaNd2O4,0.03593698987391747
LaNi2O4,0.4412569185159594
LaOs2O4,0.3967017326044697
LaPb2O4,0.0686000734790726
LaPd2O4,0.23166562401444324
LaPt2O4,0.2167002448011699
LaRe2O4,0.22372676581719375
LaRh2O4,0.22844547564592244
LaRu2O4,0.35758658453841274
LaSb2O4,0.160419779788735
LaSc2O4,0.13323680036454277
LaSm2O4,0.07549402973939578
LaSn2O4,0.19564072778335717
LaSr2O4,0.09798698466989375
LaTa2O4,0.3454949681124315
LaTb2O4,0.060451662807150086
LaTc2O4,0.2933383316072966
LaTi2O4,0.2500986821800204
LaTl2O4,0.04186965297214318
LaTm2O4,0.16188200335160552
LaV2O4,0.33917865210632403
LaW2O4,1.3764018902261892
LaY2O4,0.0678665160234555
LaZn2O4,0.19360713347123415
LaZr2O4,0.3046513959033099
LiAs2O4,0.10264334257400698
LiAu2O4,0.1873645985217589
LiBi2O4,0.07641576885321566
LiCe2O4,0.15047976995098455
LiCl2O4,0.15622886812254233
LiCo2O4,0.19628945460341374
LiCr2O4,0.14971988418104853
LiCu2O4,0.2335132400820097
LiDy2O4,0.1602797578124875
LiEu2O4,0.15329056964927723
LiFe2O4,0.180659180155903
LiGa2O4,0.19521756335183404
LiGe2O4,0.13197338115343804
LiHf2O4,0.19292327640430607
LiIr2O4,0.18305685856981402
LiLa2O4,0.11327172968119559
LiMn2O4,0.16582799199140208
LiMo2O4,0.40138081447668217
LiNb2O4,0.16860612300346745
LiNd2O4,0.14066609029585297
LiNi2O4,0.5025337366854048
LiOs2O4,0.23962923439487316
LiPd2O4,0.1343907801594444
LiPr2O4,0.15337255666403493
LiPt2O4,0.1814970158838669
LiRe2O4,0.20901250553887962
LiRh2O4,0.14994158857468332
LiRu2O4,0.17594542028374338
LiS2O4,0.11594147857390436
LiSb2O4,0.13462361228606756
LiSn2O4,0.15923271604648903
LiTa2O4,0.18515496230402384
LiTb2O4,0.18171128018539928
LiTc2O4,0.21410700170682695
LiTi2O4,0.09368807029493453
LiV2O4,0.07315956926629763
LiW2O4,0.8654334796179759
LiY2O4,0.1559694676711647
LiZn2O4,0.3715790470895497
LiZr2O4,0.12841689645104992
LuAg2O4,0.17897563251750803
LuAl2O4,0.24943582931481334
LuAu2O4,0.13648038191244627
LuBi2O4,0.11574102554617838
LuCe2O4,0.06343801255007797
LuCo2O4,0.16858886975628717
LuCr2O4,0.26174948413175336
LuCu2O4,0.21451223941489417
LuDy2O4,0.06615384888161735
LuEr2O4,0.08136978819819696
LuEu2O4,0.002598761382172299
LuFe2O4,0.1978997990198872
LuGa2O4,0.16722403379023998
LuGd2O4,0.014624870881398522
LuGe2O4,0.1494557546384101
LuHf2O4,0.3102499485701422
LuHo2O4,0.05301761065973487
LuIn2O4,0.06874234182076844
LuIr2O4,0.3962849235256094
LuLa2O4,0.015596575431420234
LuMn2O4,0.08351659831424563
LuMo2O4,0.7620010039058691
LuNb2O4,0.2858283329794702
LuNd2O4,0.03347551419059869
LuNi2O4,0.4382738295226014
LuOs2O4,0.3680084103266701
LuPb2O4,0.05590893649491768
LuPd2O4,0.16971441993129055
LuPr2O4,0.0
LuPt2O4,0.28324598559191383
LuRe2O4,0.28919817542999304
LuRh2O4,0.25320305135505716
LuRu2O4,0.37282566834483877
LuSb2O4,0.20390772176337624
LuSc2O4,0.07847848011893888
LuSe2O4,0.055760584695610405
LuSi2O4,0.36852616594436594
LuSm2O4,0.07791947025575219
LuSn2O4,0.15663683361297132
LuSr2O4,0.11051511009234449
LuTa2O4,0.30031605462809097
LuTb2O4,0.04889812386384307
LuTc2O4,0.4614942125640731
LuTe2O4,0.1614892102200205
LuTi2O4,0.19820080339124324
LuTl2O4,0.019771547104999065
LuTm2O4,0.136392696512198
LuV2O4,0.2274722548002348
LuW2O4,1.3777701282123784
LuY2O4,0.04937957383083713
LuZn2O4,0.17513644165224473
LuZr2O4,0.26298209206189327
MgAg2O4,0.2052535311817305
MgAl2O4,0.04954086673564273
MgAs2O4,0.12029875319594918
MgAu2O4,0.11497709410091872
MgB2O4,0.2134575392780329
MgBi2O4,0.11484057007222503
MgCe2O4,0.1620720509548752
MgCo2O4,0.16904858284709512
MgCr2O4,0.23409133805338023
MgCu2O4,0.12389007578679934
MgDy2O4,0.16120291601072445
MgEr2O4,0.152227053574423
MgEu2O4,0.1814842606160294
MgFe2O4,0.07996542320690736
MgGa2O4,0.011945067396936793
MgGd2O4,0.17101255033203167
MgGe2O4,0.12983559998961614
MgHf2O4,0.23039000901247597
MgHo2O4,0.14638325356334736
MgIn2O4,0.036774692741529336
MgIr2O4,0.3252412029335332
MgLa2O4,0.1826387706778796
MgLu2O4,0.12707464889036402
MgMn2O4,0.07974352674839302
MgMo2O4,0.555135423414912
MgNb2O4,0.17611002883885973
MgNd2O4,0.1852046099894249
MgNi2O4,0.4259166708142823
MgOs2O4,0.2715424790951575
MgPb2O4,0.06761602586041882
MgPd2O4,0.0993264102533109
MgPr2O4,0.18656960139792567
MgPt2O4,0.21198413613687528
MgRe2O4,0.2010334785614205
MgRh2O4,0.11803789396322983
MgRu2O4,0.25816218008848324
MgSb2O4,0.14425446937355968
MgSc2O4,0.07487134976542009
MgSe2O4,0.12740665650256933
MgSm2O4,0.18502535254965835
MgSn2O4,0.14647401017271555
MgSr2O4,0.19948491140343272
MgTa2O4,0.19754323220947967
MgTb2O4,0.16582114605687615
MgTc2O4,0.26250850508213297
MgTi2O4,0.06409732338998353
MgTl2O4,0.05096129281921957
MgTm2O4,0.1488676891943772
MgV2O4,0.0940647029039674
MgW2O4,1.1114704077242834
MgY2O4,0.15366889588469057
MgZn2O4,0.26508721388186274
MgZr2O4,0.16188909655943995
MnAg2O4,0.08069438932419626
MnAl2O4,0.09478880814968083
MnAs2O4,0.13325786816773277
MnAu2O4,0.09463717470900868
MnBa2O4,0.19122504483680736
MnBe2O4,0.13990057028675018
MnBi2O4,0.07494709147020284
MnCa2O4,0.09671502649815977
MnCd2O4,0.0577817812751249
MnCe2O4,0.49371664347408206
MnCo2O4,0.06736704191338738
MnCr2O4,0.2145633467029402
MnCu2O4,0.04404750077156816
MnDy2O4,0.15997670860756763
MnEr2O4,0.15338369888918635
MnEu2O4,0.07874187827160029
MnFe2O4,0.14345095098823002
MnGa2O4,0.00023124626388071334
MnGd2O4,0.1559542680304684
MnGe2O4,0.15714264154894853
MnHf2O4,0.7168441601130215
MnHg2O4,0.07482975069096742
MnHo2O4,0.15204038545232734
MnI2O4,0.179073412092694
MnIn2O4,0.022809720442121595
MnIr2O4,0.3174001214617679
MnK2O4,0.1713512498030294
MnLa2O4,0.2607563649988407
MnLi2O4,0.2701331336446966
MnLu2O4,0.13672866898597746
MnMg2O4,0.05933516201338751
MnMo2O4,0.532732627183008
MnNa2O4,0.1383147102434643
MnNb2O4,0.37939848931829445
MnNd2O4,0.17665706302037432
MnNi2O4,0.2691226972501193
MnOs2O4,0.2641839882393304
MnPb2O4,0.0732884834524885
MnPd2O4,0.1365343746034986
MnPr2O4,0.19400641757209058
MnPt2O4,0.20917627337584221
MnRe2O4,0.2133336886828765
MnRh2O4,0.14198539002901533
MnRu2O4,0.24097733455912262
MnSb2O4,0.09709711511438623
MnSc2O4,0.09684736843147057
MnSi2O4,0.5604646990807423
MnSm2O4,0.19029805504485076
MnSn2O4,0.22277172568760317
MnSr2O4,0.16643697650580513
MnTa2O4,0.48013188189255374
MnTb2O4,0.15650569613000087
MnTc2O4,0.3239106392358
MnTi2O4,0.33741303171627557
MnTl2O4,0.011115522439818726
MnTm2O4,0.16008702750225723
MnV2O4,0.08685028650468762
MnW2O4,1.093148913704546
MnY2O4,0.14929578509809183
MnZn2O4,0.043433500140857006
MnZr2O4,0.5857971501771218
MoAg2O4,0.10605837197359946
MoAl2O4,0.4999336676489232
MoAs2O4,0.3594398012651334
MoB2O4,0.5423277777291622
MoBa2O4,0.246190981339244
MoBe2O4,0.2087890747557637
MoBi2O4,0.38261220153323716
MoCa2O4,0.15494768731423925
MoCd2O4,0.09193772093662123
MoCe2O4,0.864119652659074
MoCo2O4,0.2301361016561394
MoCr2O4,0.3745931934978133
MoCu2O4,0.13842356599381755
MoDy2O4,0.5896809890324954
MoEr2O4,0.5536429810063632
MoEu2O4,0.29035899369690554
MoFe2O4,0.36165564884595724
MoGa2O4,0.39031214736414555
MoGd2O4,0.5636034500363643
MoHf2O4,1.1928472090295852
MoHo2O4,0.5545644449746634
MoIn2O4,0.35483806103908133
MoIr2O4,0.5620957060110889
MoLa2O4,0.598302339813471
MoLi2O4,0.18360294204520322
MoLu2O4,0.5587556525032467
MoMg2O4,0.1471613435292145
MoMn2O4,0.1736961932647283
MoNa2O4,0.2521422649217495
MoNb2O4,0.8142811384664679
MoNd2O4,0.5819074233644264
MoNi2O4,0.4937089392850771
MoOs2O4,0.5223436645847697
MoPb2O4,0.2034671526691607
MoPd2O4,0.2515952536020887
MoPr2O4,0.5823821531576314
MoRe2O4,0.7265448462032698
MoRh2O4,0.42373016408532926
MoRu2O4,0.5727404519114527
MoSb2O4,0.47298966038794266
MoSc2O4,0.493866176834695
MoSm2O4,0.6089817387691321
MoSn2O4,0.5723594547965813
MoSr2O4,0.2002069003334821
MoTa2O4,0.9101101085178556
MoTb2O4,0.6030924019527211
MoTc2O4,0.7350663936346722
MoTe2O4,0.4181570593701842
MoTi2O4,0.8143082885522492
MoTm2O4,0.5828808779398704
MoV2O4,0.4753569048003241
MoW2O4,1.3408911857639945
MoY2O4,0.5737418679820401
MoZn2O4,0.13731397612571694
MoZr2O4,1.066815898721007
NCo2O4,0.28094798529055875
NFe2O4,0.41798058242125613
NN2O4,2.00531281919603
NRu2O4,0.5555542815637695
NTa2O4,0.6700582314288841
NaAu2O4,0.20482534126089647
NaBi2O4,0.08442514904138942
NaCe2O4,0.10568663665638667
NaCo2O4,0.23280737311458122
NaCr2O4,0.16010669440197667
NaCu2O4,0.3029753544003144
NaDy2O4,0.20230217154520336
NaEr2O4,0.24437304579536345
NaEu2O4,0.1482579146165346
NaFe2O4,0.1940323607022334
NaGa2O4,0.23176257240954712
NaGd2O4,0.16447355062422453
NaGe2O4,0.1258567889966491
NaHf2O4,0.1728275283609051
NaIr2O4,0.19226579051384096
NaMn2O4,0.16492995652769515
NaMo2O4,0.44254068616292486
NaNb2O4,0.1780327258800174
NaNd2O4,0.160769430105848
NaNi2O4,0.5165681931035246
NaOs2O4,0.24507570819102487
NaP2O4,0.19691322572206715
NaPb2O4,0.0775284286510951
NaPd2O4,0.17248480178896752
NaPr2O4,0.14602243803130133
NaPt2O4,0.1660066485938314
NaRh2O4,0.2158220894412315
NaRu2O4,0.195648299818588
NaSb2O4,0.1530696474869453
NaSe2O4,0.0412748027105696
NaSi2O4,0.24695996799697006
NaSm2O4,0.15035211128574133
NaSn2O4,0.1548264130596566
NaTa2O4,0.1989332957090486
NaTb2O4,0.21187343572508244
NaTc2O4,0.24440054610113027
NaTe2O4,0.06905573251839847
NaTi2O4,0.07611953084059131
NaV2O4,0.07988136880099805
NaW2O4,0.838438431516404
NaY2O4,0.1811800143239326
NaZn2O4,0.3144270227662931
NaZr2O4,0.11883510374540407
NbAg2O4,0.09010881511035151
NbAl2O4,0.19593308150570632
NbAs2O4,0.20837838380726126
NbAu2O4,0.16256722768538
NbB2O4,0.2605251169101077
NbBa2O4,0.13015045423627392
NbBe2O4,0.15818172241472706
NbCa2O4,0.10062464373560154
NbCd2O4,0.10136852245299721
NbCo2O4,0.278628039114154
NbCr2O4,0.40403872186147716
NbCu2O4,0.12872120087383632
NbDy2O4,0.2846016886567142
NbEr2O4,0.32191562835540743
NbEu2O4,0.12855258105310696
NbFe2O4,0.41616246258632117
NbGa2O4,0.15718006266430162
NbGd2O4,0.2700441183395199
NbGe2O4,0.2112889151887387
NbHf2O4,0.5082321947629236
NbHg2O4,0.0865873480584165
NbHo2O4,0.2848815400615443
NbIn2O4,0.10342414416937817
NbIr2O4,0.5005619911556947
NbK2O4,0.058134844380385076
NbLa2O4,0.2512316965506791
NbLi2O4,0.18673245851468145
NbLu2O4,0.2634008028404615
NbMg2O4,0.07594055205670003
NbMn2O4,0.1856543655413443
NbMo2O4,0.9688003244941985
NbNa2O4,0.11150471619326119
NbNb2O4,0.42797371444618193
NbNd2O4,0.32477009176862737
NbNi2O4,0.5090107612242294
NbOs2O4,0.5230268569580225
NbPd2O4,0.2865713524920608
NbPr2O4,0.2693576917888585
NbPt2O4,0.3180798354175822
NbRe2O4,0.44358844493668137
NbRh2O4,0.3829473779370147
NbRu2O4,0.4640218641870266
NbSc2O4,0.21090582308794303
NbSi2O4,0.42393222940190345
NbSm2O4,0.29185076336122684
NbSr2O4,0.12841756404363291
NbTa2O4,0.14918782187382362
NbTb2O4,0.26869703071922046
NbTi2O4,0.16486423712423992
NbTl2O4,0.054338042338963
NbTm2O4,0.3234393399281199
NbV2O4,0.2820606177100924
NbW2O4,1.6413129414327559
NbY2O4,0.29293039350631744
NbZn2O4,0.08511331330060301
NbZr2O4,0.44265780441469715
NdAg2O4,0.18783419232092413
NdAl2O4,0.1965745003995787
NdAs2O4,0.168048468659582
NdAu2O4,0.19035704026099776
NdBa2O4,0.090551791629089
NdBe2O4,0.29863812785192057
NdBi2O4,0.13897196189750538
NdCa2O4,0.1572415063101138
NdCd2O4,0.1658843132880854
NdCo2O4,0.16560982907054989
NdCr2O4,0.3624054334329285
NdCu2O4,0.22063089641977385
NdDy2O4,0.07661741825087454
NdEr2O4,0.09910903706809826
NdEu2O4,0.02571128895146657
NdFe2O4,0.2929102218273947
NdGa2O4,0.1824811661097714
NdGd2O4,0.020949196888537358
NdGe2O4,0.16295000501468415
NdHf2O4,0.34903858817143885
NdHg2O4,0.17772238809551855
NdHo2O4,0.07389044310220072
NdIn2O4,0.10415964235749176
NdIr2O4,0.35892800682370485
NdLa2O4,0.03701458032044336
NdLu2O4,0.09582929285187092
NdMg2O4,0.2954329970341574
NdMn2O4,0.18024920379757958
NdMo2O4,0.7798682529608163
NdNb2O4,0.3240295599709828
NdNd2O4,0.021875207895901028
NdNi2O4,0.49200450851626254
NdOs2O4,0.3999291378390506
NdPb2O4,0.07117146071014968
NdPd2O4,0.24414848252784438
NdRe2O4,0.2694483493748763
NdRh2O4,0.24133642065920569
NdRu2O4,0.3100408649891877
NdSb2O4,0.17543917339080917
NdSc2O4,0.11519422095056342
NdSm2O4,0.07537410854960136
NdSn2O4,0.1863264488342038
NdSr2O4,0.08991157910324699
NdTa2O4,0.34463125873585554
NdTb2O4,0.05728766158502552
NdTe2O4,0.13227608393265466
NdTi2O4,0.22684596872471374
NdTl2O4,0.04443723058188542
NdTm2O4,0.15358638539496994
NdV2O4,0.3073582010686833
NdW2O4,1.4419281793699534
NdY2O4,0.0630358963949309
NdZn2O4,0.1872683040081098
NdZr2O4,0.27345220163800477
NiAg2O4,0.28484605802109897
NiAl2O4,0.12267515080457692
NiAs2O4,0.31739182720302406
NiAu2O4,0.2417850515381028
NiB2O4,0.20978563895682178
NiBa2O4,0.41109290893125916
NiBe2O4,0.43423068038671264
NiBi2O4,0.25377026299245475
NiBr2O4,0.5481956318695187
NiCa2O4,0.29144913767678293
NiCd2O4,0.2926966725757829
NiCe2O4,0.8424511269896442
NiCo2O4,0.1674005210355496
NiCr2O4,0.2906435121329407
NiCu2O4,0.19263148729325952
NiDy2O4,0.3186082366210181
NiEr2O4,0.30808487673891793
NiEu2O4,0.2758888610694097
NiFe2O4,0.21931824767655872
NiGa2O4,0.11230481415019966
NiGd2O4,0.34143359025649644
NiGe2O4,0.5117643991949761
NiHf2O4,0.9632540515963353
NiHg2O4,0.2964177699184871
NiHo2O4,0.3116466741333168
NiIn2O4,0.1753547182339208
NiIr2O4,0.5535505905619207
NiLa2O4,0.316172308148543
NiLu2O4,0.28671040596923714
NiMg2O4,0.2982237305175488
NiMn2O4,0.17521743518907762
NiMo2O4,0.6961110934474588
NiNb2O4,0.6927502974262971
NiNd2O4,0.3672517482920554
NiNi2O4,0.4932675112492779
NiOs2O4,0.5089735472968338
NiPb2O4,0.21101273319442715
NiPd2O4,0.2076607133753301
NiPr2O4,0.351153120724212
NiPt2O4,0.3611976422810006
NiRe2O4,0.5618420201530041
NiRh2O4,0.37973958550233
NiRu2O4,0.5080603781667605
NiSb2O4,0.40987025473345895
NiSc2O4,0.22643288492388702
NiSe2O4,0.2787789420785689
NiSi2O4,0.9623641137945746
NiSm2O4,0.34130994187142427
NiSn2O4,0.5696582317369492
NiSr2O4,0.35055081241053454
NiTa2O4,0.8245953370099812
NiTb2O4,0.32978092334373343
NiTc2O4,0.5937030773019991
NiTe2O4,0.3920527545280388
NiTi2O4,0.6860871427208632
NiTl2O4,0.21201138637198014
NiTm2O4,0.3090075895892399
NiV2O4,0.40875975019407207
NiW2O4,1.2628149413273073
NiY2O4,0.31487208605491723
NiZn2O4,0.2891964587886786
NiZr2O4,0.8724684161450273
OsAg2O4,0.2517163005037535
OsAl2O4,0.3508778502949532
OsAs2O4,0.2918200822586714
OsAu2O4,0.3535578051050132
OsB2O4,0.3221768118125192
OsBa2O4,0.2573759096611363
OsBe2O4,0.15650996771688597
OsBi2O4,0.24692233005519082
OsCa2O4,0.15022183668734446
OsCd2O4,0.11124355388764418
OsCo2O4,0.3199910285667569
OsCr2O4,0.3669730303248224
OsCu2O4,0.1020710291483784
OsEr2O4,0.3880693283614107
OsEu2O4,0.2629873611077773
OsFe2O4,0.4046147772685744
OsGa2O4,0.2944897033193472
OsGd2O4,0.3777590197971996
OsGe2O4,0.4177649197515656
OsHo2O4,0.38173408866767033
OsIn2O4,0.3170883309785184
OsIr2O4,0.34217825334762253
OsLa2O4,0.37020020689716127
OsLi2O4,0.16189599871889992
OsLu2O4,0.3983664471359045
OsMg2O4,0.0866127155314258
OsMn2O4,0.08535756794966076
OsMo2O4,0.7502522711256816
OsNa2O4,0.19427594635037337
OsNb2O4,0.47358396148894677
OsNd2O4,0.3343702644933835
OsNi2O4,0.6212310338665796
OsPd2O4,0.2566141897514589
OsPr2O4,0.3397227923839239
OsPt2O4,0.3648566327371334
OsRe2O4,0.4728550449193971
OsRh2O4,0.17262035349492422
OsRu2O4,0.3460055183726425
OsSc2O4,0.4248086322309188
OsSe2O4,0.1443204259557609
OsSi2O4,0.7916720400903765
OsSm2O4,0.39331618613829633
OsSn2O4,0.4634823954636893
OsSr2O4,0.21237890796731573
OsTa2O4,0.5451198210771739
OsTb2O4,0.34573480620087693
OsTc2O4,0.43577114337281486
OsTi2O4,0.5880830773567958
OsTm2O4,0.4060962224522928
OsV2O4,0.3363794956411583
OsY2O4,0.3738601988372565
OsZn2O4,0.10883965569506948
OsZr2O4,0.7577155447419219
PAl2O4,0.33421935813607107
PCu2O4,0.15233768293517613
PGa2O4,0.31678431652883265
PIr2O4,0.5120293653232091
PMg2O4,0.2612468103615342
PNi2O4,0.4691855088964685
POs2O4,0.4866173901473205
PRu2O4,0.43109375129191196
PSb2O4,0.3111342854870127
PSi2O4,0.4363428753542147
PTa2O4,0.39807321054004596
PTi2O4,0.2586267668730482
PV2O4,0.3991423469895068
PZn2O4,0.2838642542935874
PbAg2O4,0.08628127833519628
PbAl2O4,0.1985988956710525
PbAu2O4,0.09252852475499296
PbB2O4,0.166383209182265
PbBa2O4,0.12567024990283482
PbBe2O4,0.24185262966638188
PbBi2O4,0.093650502493273
PbCa2O4,0.08904603979609149