Formula,Ehull
AgB2S4,0.8114193981626112
AgBi2S4,0.0
AgC2S4,1.3806054452604846
AgCo2S4,0.0
AgCu2S4,2.3397852150509806
AgEu2S4,9.425254962183427
AgGa2S4,0.0
AgGd2S4,0.03898158222516024
AgHf2S4,0.08268770740893494
AgIn2S4,0.0
AgIr2S4,0.0
AgLa2S4,0.12260759181453906
AgLu2S4,0.5523893886898694
AgMn2S4,0.0
AgMo2S4,0.0
AgNb2S4,0.14767687286719067
AgNd2S4,0.08492245249374619
AgOs2S4,0.0
AgP2S4,0.2817621000248316
AgPb2S4,0.2295574915633205
AgPr2S4,0.09372229140536792
AgRh2S4,0.0
AgRu2S4,0.0
AgSb2S4,0.0
AgSc2S4,0.0
AgSm2S4,0.06487491847327931
AgSn2S4,0.0
AgSr2S4,0.4799672332525695
AgTa2S4,0.16341279934999164
AgTe2S4,0.11288323512932807
AgTi2S4,0.03896393447143698
AgTl2S4,0.0
AgTm2S4,0.0
AgV2S4,0.0
AgW2S4,0.0
AgYb2S4,error
AgZr2S4,0.03432423227396608
AlAu2S4,0.2427306774261928
AlB2S4,0.7212154029848534
AlBi2S4,0.08168299829622239
AlC2S4,1.5964640629530775
AlCe2S4,7.048644241396342
AlCo2S4,0.08119658639998839
AlEr2S4,0.01827057751636829
AlGd2S4,0.02414356869790346
AlHf2S4,0.1478233435879508
AlHo2S4,0.024197650703377427
AlLa2S4,0.12024230210819908
AlLu2S4,0.0
AlMn2S4,0.0
AlMo2S4,0.0
AlNb2S4,0.17796108524601273
AlNd2S4,0.09419132776863304
AlOs2S4,0.0
AlP2S4,0.4572104376130248
AlPb2S4,0.09443822803841684
AlPd2S4,1.275273062572015
AlPr2S4,0.09771831720902835
AlRe2S4,0.0
AlRh2S4,0.0
AlSc2S4,0.0
AlSi2S4,0.4530947386826911
AlSm2S4,0.056953817799195505
AlSn2S4,0.0
AlTb2S4,0.0
AlTi2S4,0.10168051062509154
AlTl2S4,0.0
AlTm2S4,0.03127972473285201
AlV2S4,0.0
AlY2S4,0.02733549411659464
AlYb2S4,error
AlZn2S4,0.0
AlZr2S4,0.0
AsAg2S4,4.0478534950981695
AsAu2S4,0.0
AsB2S4,0.6913353375095728
AsBa2S4,0.1862671177003401
AsBe2S4,0.3485235145292913
AsBi2S4,0.1738512969370758
AsC2S4,1.2827904668906944
AsCa2S4,0.1367316801906604
AsCe2S4,8.197535715601907
AsCo2S4,0.03947402587964355
AsCu2S4,0.11310697320748098
AsEu2S4,0.9528265208428301
AsHf2S4,0.39310529142579753
AsHg2S4,0.0
AsHo2S4,4.743659002424041
AsIr2S4,2.6406593430773806
AsLa2S4,0.2614597860963066
AsLu2S4,0.16248936691482818
AsMg2S4,0.07808919952489468
AsMn2S4,0.0
AsNb2S4,0.38598843145580997
AsNd2S4,0.23932797726832788
AsNi2S4,0.0
AsOs2S4,0.0
AsP2S4,0.3315909410043849
AsPd2S4,2.1441587448016297
AsPr2S4,4.260353914820388
AsRe2S4,0.0
AsRh2S4,0.0
AsRu2S4,0.0
AsSi2S4,0.5331687949194794
AsSm2S4,0.22053176426642018
AsSr2S4,5.807134521044361
AsTa2S4,0.4205355553734993
AsTe2S4,0.2280730420948731
AsTi2S4,0.27160157032244037
AsTl2S4,0.0
AsTm2S4,0.18491919029149706
AsV2S4,0.0
AsW2S4,0.0
AsY2S4,0.0
AsYb2S4,error
AsZn2S4,0.0
AuAg2S4,2.8810123425788476
AuAl2S4,0.0
AuB2S4,0.7955531176626076
AuBi2S4,0.07858991639535606
AuCa2S4,0.4158455342846983
AuCd2S4,0.38078941875061645
AuCe2S4,0.09865579571359984
AuCo2S4,0.03439775823244151
AuCu2S4,0.2163513209228043
AuDy2S4,0.10520793049142085
AuEr2S4,0.08845081563954782
AuGa2S4,0.0
AuGd2S4,0.11703524793787068
AuHf2S4,0.20054008829166392
AuIn2S4,0.0
AuIr2S4,6.060432512343451
AuMn2S4,0.0
AuMo2S4,0.0
AuNb2S4,0.25925888390758
AuNd2S4,0.16588086587662154
AuNi2S4,0.3418073659593368
AuOs2S4,0.0
AuP2S4,1.3270469367754534
AuPb2S4,0.25372132774926737
AuPd2S4,2.955854762646901
AuPr2S4,0.1732456892455474
AuRe2S4,1.4696206031330652
AuRh2S4,0.0
AuRu2S4,0.0
AuSb2S4,0.07929363529773159
AuSc2S4,0.0
AuSe2S4,0.0
AuSi2S4,2.739888791384301
AuSm2S4,0.1450129935144675
AuSn2S4,0.0
AuTa2S4,0.2650458119623238
AuTb2S4,0.11293476868701724
AuTe2S4,0.19993366116244848
AuTi2S4,0.13453245578192963
AuTl2S4,5.966701015226298
AuTm2S4,0.08307885311497376
AuV2S4,0.0
AuW2S4,0.0
AuY2S4,0.09987213668150474
AuYb2S4,error
AuZn2S4,0.0
BAu2S4,0.3125477805140964
BBi2S4,0.11826126051655272
BC2S4,1.299765133721996
BCo2S4,0.09781163428487716
BCu2S4,0.2062218041429622
BDy2S4,0.15204832418036673
BEr2S4,0.13341666651346706
BEu2S4,10.733042592081286
BGd2S4,0.1750417939039668
BHf2S4,0.10369192133403704
BIn2S4,0.0
BLa2S4,0.2800314590661106
BLu2S4,0.10858860521764324
BMn2S4,0.0
BMo2S4,0.0
BNb2S4,0.08095149049597072
BNd2S4,0.23179496905290886
BNi2S4,0.0
BOs2S4,0.0
BP2S4,0.3642356765091739
BPb2S4,0.22420975185564362
BPd2S4,0.0
BPr2S4,0.24975388250431507
BPt2S4,0.0
BRe2S4,0.0
BRh2S4,0.0
BSb2S4,0.1520347803633717
BSc2S4,0.0
BSi2S4,0.4260848581684522
BSm2S4,0.2130702871957153
BSr2S4,1.9047180778418111
BTa2S4,0.08041341967376336
BTc2S4,0.0
BTe2S4,0.28448200051295824
BTi2S4,0.014324096376371998
BTl2S4,0.2957218011817426
BTm2S4,0.1302917894784832
BV2S4,0.0
BW2S4,0.0
BY2S4,0.15188734259639958
BYb2S4,error
BZn2S4,0.0
BZr2S4,0.0
BaAu2S4,0.34878049567812086
BaCe2S4,0.0
BaCr2S4,0.0
BaEr2S4,0.0
BaGa2S4,0.0
BaGd2S4,0.09805000439544109
BaHf2S4,4.736167491750489
BaHo2S4,0.0
BaLa2S4,0.0
BaMn2S4,0.0
BaMo2S4,0.0
BaNb2S4,0.4322286945681437
BaNd2S4,0.05817318515095238
BaNi2S4,0.0
BaP2S4,0.0
BaPb2S4,2.9300219024807315
BaPd2S4,0.0
BaPr2S4,0.03753154696674077
BaPt2S4,0.0
BaRe2S4,0.2518317715382299
BaRh2S4,0.0
BaRu2S4,0.0
BaSb2S4,0.0
BaSc2S4,0.0
BaSe2S4,0.0
BaSi2S4,0.9189227168777814
BaSm2S4,0.07195998037791451
BaSr2S4,0.3156928279255027
BaTa2S4,2.2232966845550353
BaTb2S4,6.573860539489165
BaTc2S4,0.0
BaTe2S4,0.23297641983939554
BaTi2S4,0.3107779678379057
BaTm2S4,0.10250586392129524
BaZn2S4,0.0
BeAu2S4,1.4901965746284138
BeB2S4,0.8072683670034086
BeBi2S4,0.08333512828208711
BeC2S4,1.4748738459536996
BeCe2S4,1.9818870005242868
BeCo2S4,0.06039887815364242
BeCu2S4,0.3211746318098738
BeDy2S4,0.11358315226390925
BeEr2S4,0.0
BeEu2S4,9.962111346727168
BeGd2S4,0.13684472764278155
BeHf2S4,0.0
BeIn2S4,0.0
BeLa2S4,0.24238650546604124
BeLu2S4,0.06782344469556989
BeMn2S4,0.0
BeMo2S4,0.0
BeNb2S4,0.12476731001148877
BeNd2S4,0.19515828481126274
BeOs2S4,0.0
BeP2S4,0.3803314469931074
BePb2S4,0.27021193272915234
BePr2S4,0.20951361182594042
BePt2S4,0.0
BeRe2S4,0.0
BeRh2S4,0.0
BeRu2S4,0.0
BeSb2S4,0.10564821662517776
BeSc2S4,0.0
BeSi2S4,0.3329387113853608
BeSm2S4,0.1777771845364704
BeSr2S4,1.753578663084745
BeTa2S4,0.08094841809759945
BeTb2S4,0.0
BeTe2S4,0.24279691695245242
BeTi2S4,0.04640978009817154
BeTl2S4,0.0
BeTm2S4,0.08670341773424717
BeV2S4,0.0
BeW2S4,0.0
BeY2S4,0.10947410615503905
BeYb2S4,error
BeZr2S4,0.0
BiAl2S4,2.3046127556622706
BiAs2S4,0.19851693263142867
BiB2S4,0.83791465960193
BiBa2S4,0.1290563889798504
BiBe2S4,0.6985593028726704
BiBi2S4,0.055040312344290854
BiC2S4,1.5321132917458966
BiCa2S4,0.1340713745984159
BiCd2S4,0.14735731544330966
BiCe2S4,0.12629106623585074
BiCo2S4,0.08648066269995436
BiCr2S4,0.0
BiCu2S4,3.1834246200427265
BiDy2S4,0.058346134247755366
BiEr2S4,0.053767456033154915
BiFe2S4,0.0
BiGa2S4,2.420059811665464
BiGd2S4,0.05366633409543908
BiGe2S4,0.0
BiHf2S4,0.32793847530640985
BiHg2S4,0.16343563986431597
BiHo2S4,0.05790638743096821
BiIr2S4,0.0
BiLa2S4,0.09658171148309691
BiLu2S4,8.353564011429178
BiMg2S4,1.1419703060644006
BiMn2S4,0.0
BiMo2S4,0.0
BiNb2S4,0.36701321679672727
BiNd2S4,0.08511118140797702
BiNi2S4,4.970467159748434
BiOs2S4,0.0
BiP2S4,0.4078459615351546
BiPd2S4,2.2084001885241795
BiPr2S4,0.09038634975294713
BiPt2S4,6.182716471110393
BiRe2S4,0.10519702827045041
BiRh2S4,4.076040794741276
BiRu2S4,0.0
BiSi2S4,0.5003382231720135
BiSm2S4,0.0723783133171283
BiSn2S4,0.0
BiSr2S4,0.12070388973562363
BiTa2S4,0.45623582968123877
BiTb2S4,0.06766401241829101
BiTc2S4,0.0
BiTe2S4,0.18972264040342557
BiTi2S4,0.1788586042501885
BiTl2S4,0.18928832817489605
BiTm2S4,0.06908048775223996
BiV2S4,0.0
BiW2S4,0.0
BiY2S4,0.05600841324071926
CAg2S4,0.0
CAu2S4,0.6166414872108783
CB2S4,1.0323067957335388
CBa2S4,0.0
CBe2S4,0.7533761526787162
CBi2S4,0.5594745824572094
CC2S4,1.4527124630412116
CCa2S4,0.0
CCo2S4,0.48169820985097367
CCu2S4,0.46144786191590814
CEr2S4,1.0441900516769982
CEu2S4,6.620586001206334
CHf2S4,0.714567065759117
CHg2S4,0.6130713469772617
CLu2S4,0.5792738560145079
CMg2S4,0.0
CMn2S4,0.0
CMo2S4,0.0
CNb2S4,0.6602222515015033
COs2S4,0.0
CP2S4,0.715382318637606
CPb2S4,0.485725515739464
CPd2S4,0.0
CPr2S4,0.0
CRe2S4,0.0
CRh2S4,0.0
CRu2S4,0.0
CSc2S4,0.0
CSi2S4,0.88228792902314
CSn2S4,0.0
CSr2S4,5.953392233463535
CTa2S4,0.6827880897539274
CTi2S4,0.5966247169311192
CTl2S4,0.0
CTm2S4,1.5545104094346227
CV2S4,0.0
CW2S4,0.0
CYb2S4,error
CZn2S4,0.0
CZr2S4,0.0
CaAg2S4,0.0
CaAu2S4,0.37552941829551445
CaB2S4,1.089451773148916
CaCe2S4,8.227597208682901
CaCo2S4,0.27889814732769214
CaCu2S4,2.3410716208808537
CaDy2S4,0.027062792844280814
CaEr2S4,0.031402067397861444
CaEu2S4,0.0
CaGd2S4,0.041140575074370744
CaHf2S4,0.13948394988133916
CaHo2S4,0.0
CaIn2S4,0.0
CaLa2S4,0.08559536538025103
CaLu2S4,5.702934081735027
CaMn2S4,0.0
CaMo2S4,0.0
CaNb2S4,0.3545513866201677
CaNd2S4,0.06679243802010326
CaNi2S4,0.0
CaOs2S4,0.0
CaP2S4,0.5177066605371925
CaPb2S4,0.2254399688325064
CaPd2S4,0.0
CaPr2S4,0.07517870582511321
CaPt2S4,0.0
CaRe2S4,0.2524294031193195
CaRh2S4,0.0
CaRu2S4,0.0
CaSm2S4,0.05413729469104034
CaSn2S4,0.0
CaSr2S4,0.3440525931916971
CaTa2S4,0.3705691613356974
CaTb2S4,0.0
CaTc2S4,0.0
CaTe2S4,0.23009186062872145
CaTi2S4,0.20683573268060673
CaTl2S4,0.24937377251861337
CaTm2S4,0.032051059059875264
CaV2S4,0.0
CaW2S4,0.0
CaY2S4,5.7711399578938725
CaYb2S4,error
CaZr2S4,0.11431189068640535
CdAg2S4,0.0
CdAu2S4,0.2382120422596712
CdB2S4,0.8123552448200924
CdBi2S4,0.009243485220794767
CdC2S4,1.5175530422033265
CdCe2S4,0.07960817954717125
CdCo2S4,0.06783069588305501
CdCu2S4,0.24639370470657784
CdDy2S4,0.00673430874587666
CdEr2S4,0.005814596567996766
CdEu2S4,0.14111737732275387
CdGa2S4,0.0
CdGd2S4,0.016297745094279392
CdHf2S4,0.09310026929720916
CdHo2S4,0.003607360233004897
CdIn2S4,0.0
CdIr2S4,0.008087898623047707
CdLa2S4,0.08317475563770049
CdLu2S4,0.004114897894603509
CdMn2S4,0.0
CdMo2S4,0.0
CdNb2S4,0.19662110259249843
CdNd2S4,0.05302870518951064
CdNi2S4,0.6863629796325745
CdOs2S4,0.0
CdP2S4,0.35120352022263823
CdPb2S4,0.16662210035877978
CdPd2S4,0.0
CdPr2S4,0.06094927942778572
CdRe2S4,0.11353692744681343
CdRh2S4,0.0
CdRu2S4,0.0
CdSb2S4,0.036612856168992014
CdSc2S4,0.0
CdSi2S4,0.3269793092186921
CdSm2S4,0.040115236400164456
CdSr2S4,0.3072480609535617
CdTa2S4,0.1897924041641197
CdTb2S4,0.013546939513520151
CdTc2S4,0.0
CdTe2S4,0.13856434499382875
CdTi2S4,0.07109069509045884
CdTl2S4,1.4534278856898828
CdTm2S4,0.004844297195932157
CdV2S4,0.0
CdW2S4,0.0
CdY2S4,0.0
CdZr2S4,0.02644500566637653
CeAg2S4,0.0
CeAl2S4,0.0
CeAs2S4,0.0
CeAu2S4,0.3524917801842129
CeB2S4,1.092905804153654
CeBi2S4,0.18632309239911304
CeC2S4,0.7573276246244234
CeCa2S4,0.0
CeCd2S4,0.24193416562202064
CeCo2S4,1.4351113327718412
CeCr2S4,0.0
CeCu2S4,0.742294436825337
CeDy2S4,0.0
CeEr2S4,0.0
CeFe2S4,0.0
CeGa2S4,0.0
CeGd2S4,0.0
CeHf2S4,1.8194578351430897
CeHg2S4,0.0
CeHo2S4,0.0
CeLa2S4,4.799924214837938
CeMg2S4,0.1985855006342616
CeMn2S4,0.0
CeMo2S4,0.0
CeNb2S4,0.44394796089533983
CeNd2S4,0.0
CeNi2S4,0.0
CeOs2S4,0.0
CePd2S4,0.0
CePt2S4,0.0
CeRe2S4,0.6545710753672882
CeRh2S4,0.0
CeRu2S4,0.0
CeSb2S4,0.0
CeSc2S4,0.0
CeSe2S4,0.0
CeSr2S4,3.494295344866457
CeTa2S4,0.0
CeTb2S4,0.0
CeTi2S4,2.5899969482533365
CeTl2S4,4.736231499207097
CeTm2S4,0.0
CeV2S4,0.0
CeW2S4,0.0
CeZn2S4,0.0
CoAu2S4,0.2931640419903978
CoB2S4,0.7671000074780174
CoBe2S4,0.5222912018592281
CoC2S4,1.4051648584828484
CoCa2S4,0.0
CoCd2S4,0.3696428104296996
CoCu2S4,0.1915708037230308
CoEr2S4,0.1498095632313312
CoHf2S4,0.15132018677699577
CoHg2S4,0.0
CoHo2S4,0.0
CoLa2S4,0.2927932624917151
CoMg2S4,0.3135028265447204
CoMn2S4,0.0
CoNb2S4,0.17971207577372095
CoNd2S4,0.24539309820708155
CoNi2S4,0.0
CoP2S4,0.41287500944899413
CoPb2S4,0.3171010162656689
CoPr2S4,4.3968158787446665
CoRh2S4,0.0
CoRu2S4,0.0
CoSb2S4,0.0
CoSc2S4,0.0
CoSi2S4,0.39920182314300856
CoSm2S4,0.23154298331721446
CoSr2S4,6.042823748423322
CoTa2S4,0.1402128480163265
CoTb2S4,0.0
CoTe2S4,0.2985356365596008
CoTi2S4,0.08758734445032257
CoTl2S4,0.0
CoV2S4,0.0
CoZn2S4,0.0
CoZr2S4,0.0
CrAu2S4,0.302068014127296
CrB2S4,0.8397890532260588
CrBa2S4,0.22978093827067525
CrBe2S4,1.1379977699884947
CrBi2S4,0.14350544235070561
CrCa2S4,0.21567480073341283
CrCd2S4,0.23997449912093316
CrCe2S4,0.2370834801845838
CrCo2S4,0.12490320434573743
CrCs2S4,3.1176943006381688
CrCu2S4,2.2330873283991566
CrDy2S4,0.0
CrGd2S4,0.14700921959717128
CrH2S4,0.8654186165482791
CrHf2S4,0.27631066646671965
CrHg2S4,0.25041987544590016
CrHo2S4,0.0
CrK2S4,0.0
CrLa2S4,4.58112218981781
CrLu2S4,0.10923262377513421
CrMg2S4,0.17528392815284555
CrMn2S4,0.0
CrMo2S4,0.0
CrNa2S4,0.7930276910327763
CrNb2S4,0.33744966997457837
CrNd2S4,0.20136572656017115
CrOs2S4,0.0
CrP2S4,0.42288662932283216
CrPb2S4,0.1624472051819561
CrPd2S4,0.0
CrPr2S4,0.20903675065434424
CrPt2S4,0.0
CrRb2S4,0.20273232515500972
CrRe2S4,0.0
CrRh2S4,0.0
CrRu2S4,0.0
CrSb2S4,0.18215319947134034
CrSc2S4,0.0
CrSi2S4,0.47082684113056494
CrSm2S4,0.17949194623179832
CrSn2S4,0.0
CrSr2S4,1.704865322243232
CrTa2S4,0.3978129369680916
CrTb2S4,0.0
CrTi2S4,0.15794111525330834
CrTl2S4,0.0
CrTm2S4,0.1302621109093529
CrV2S4,0.0
CrYb2S4,error
CrZn2S4,0.0
CrZr2S4,0.18344621455427923
CsAs2S4,0.0
CsAu2S4,0.4588069927137388
CsBi2S4,0.11353410675522646
CsCo2S4,0.5493689803264274
CsCr2S4,0.0
CsDy2S4,4.674246028751098
CsEr2S4,5.139590657883077
CsGd2S4,0.09559610571871602
CsHf2S4,0.14100659415616068
CsLa2S4,0.0
CsNd2S4,0.0936216828555203
CsPd2S4,0.0
CsPr2S4,0.09429600624803491
CsPt2S4,0.0
CsRh2S4,0.0
CsRu2S4,0.0
CsSm2S4,0.09595186192570804
CsTa2S4,2.2200541665857507
CsTb2S4,5.094447608952671
CsTe2S4,0.2085166898203652
CsTi2S4,0.37716861478780395
CsV2S4,0.0
CsW2S4,0.0
CsZn2S4,3.4757217069323914
CsZr2S4,3.1128257469806297
CuAg2S4,1.8316702270417307
CuAl2S4,0.0
CuAu2S4,1.7284121243729418
CuB2S4,0.7289659947949696
CuBe2S4,0.5763661173743353
CuBi2S4,0.028473364157044934
CuC2S4,1.3234258576708022
CuCd2S4,1.9046543362748485
CuCe2S4,3.020364927335857
CuCo2S4,0.013476465823395678
CuEr2S4,0.036999005274789276
CuGd2S4,8.041976104033798
CuHf2S4,0.013615901791221852
CuHg2S4,1.8248036457700663
CuIr2S4,0.004132265132009039
CuLa2S4,0.2024358308876879
CuLu2S4,0.022968795209165727
CuMg2S4,2.23003588936906
CuMn2S4,0.0
CuMo2S4,0.0
CuNb2S4,0.10293505244292245
CuNd2S4,0.14712312763445734
CuNi2S4,1.282671471042503
CuOs2S4,0.0
CuP2S4,0.26747402189983216
CuPb2S4,0.24409614777610678
CuPd2S4,0.0
CuPr2S4,0.15756110262734335
CuPt2S4,0.00336552001963053
CuRh2S4,0.0
CuRu2S4,0.0
CuSb2S4,0.011873695305108178
CuSc2S4,0.0
CuSe2S4,0.3005096103519298
CuSi2S4,0.26472442585265465
CuSm2S4,0.12037614621283943
CuTa2S4,0.09626661819937343
CuTe2S4,0.14899461880776288
CuTi2S4,0.011365160901370963
CuTl2S4,0.22192005849922802
CuTm2S4,0.03144794288059227
CuW2S4,0.0
CuY2S4,3.842777153968246
CuYb2S4,error
CuZr2S4,0.0
DyAg2S4,0.0
DyAl2S4,0.0
DyAu2S4,0.3646668169507308
DyB2S4,0.18588042387638914
DyBi2S4,0.16709644357784903
DyCa2S4,0.20727698414446216
DyCd2S4,0.26435497719070344
DyCo2S4,0.3196543004158876
DyCu2S4,1.998225424019767
DyDy2S4,0.03849390120844998
DyEr2S4,0.026460548103874437
DyGd2S4,0.03553948730091072
DyHf2S4,0.30041672626827864
DyHg2S4,1.4274776737235646
DyHo2S4,0.03412457340068986
DyLa2S4,0.06904961171345825
DyMg2S4,0.2504416182379279
DyNb2S4,0.4221874698179322
DyNd2S4,0.06669992710688444
DyNi2S4,0.0
DyOs2S4,0.0
DyP2S4,0.5854112462369567
DyPd2S4,0.0
DyPr2S4,0.07049081484176867
DyPt2S4,0.0
DyRe2S4,0.33675948594810023
DyRh2S4,0.0
DyRu2S4,0.0
DySi2S4,0.15571099634995456
DySm2S4,0.05286590878584452
DySr2S4,0.188898884476826
DyTb2S4,0.0
DyTe2S4,0.35400036969228665
DyTi2S4,0.2883963010914785
DyTl2S4,1.5309526625087608
DyTm2S4,0.038306351465549504
DyW2S4,0.0
DyY2S4,0.023998355283459283
DyZn2S4,0.0
ErAg2S4,3.422060571557108
ErAl2S4,0.0
ErAu2S4,0.3589061422877542
ErB2S4,1.0711577772847205
ErCa2S4,0.2005654942154509
ErCd2S4,0.25625291789012117
ErCe2S4,8.545314677411616
ErCo2S4,0.30315842407764393
ErCu2S4,2.1282864528613836
ErDy2S4,0.031192090119240845
ErEr2S4,0.014772224426823577
ErGd2S4,0.02911401971462446
ErHf2S4,0.29904973362325293
ErHg2S4,3.649901245020743
ErHo2S4,0.02436361731603398
ErLa2S4,0.0974349059121673
ErLu2S4,11.313077754439881
ErMo2S4,0.0
ErNb2S4,0.4189875116285311
ErNd2S4,0.07096107826102926
ErNi2S4,3.062362086514047
ErOs2S4,0.0
ErP2S4,0.5645603382269053
ErPb2S4,0.1588045014818098
ErPd2S4,0.0
ErPr2S4,0.07672100441327068
ErPt2S4,0.0
ErRe2S4,0.3519781823329211
ErRh2S4,0.0
ErRu2S4,0.0
ErSe2S4,2.2454193025678584
ErSi2S4,0.5895414721313017
ErSm2S4,0.05460314834293367
ErSr2S4,0.18384285524250643
ErTa2S4,0.46130738188020093
ErTb2S4,0.03615868140570022
ErTe2S4,0.33703335319768346
ErTi2S4,0.28566307838790816
ErTl2S4,11.75894324164646
ErV2S4,0.0
ErZn2S4,1.59672351711209
ErZr2S4,0.11995424228923834
EuAg2S4,0.0
EuAu2S4,7.2110592629070815
EuBe2S4,0.0
EuBi2S4,0.0
EuCa2S4,0.17832782005764347
EuCd2S4,0.33659225991769137
EuCo2S4,0.2865678970586911
EuCs2S4,0.0
EuH2S4,2.115485081914105
EuHf2S4,0.17423024204416038
EuHg2S4,0.2531492364335417
EuIr2S4,0.0
EuK2S4,0.0
EuLa2S4,6.318781854814362
EuMo2S4,0.0
EuNa2S4,1.1088229028446257
EuNb2S4,5.004422209689083
EuNd2S4,0.090210284192902
EuOs2S4,0.0
EuP2S4,0.5468707905269099
EuPb2S4,0.20806049960341255
EuPd2S4,0.0
EuPr2S4,0.0
EuRb2S4,0.0
EuRe2S4,0.26741758570550545
EuRh2S4,0.0
EuRu2S4,0.0
EuSc2S4,0.0
EuSm2S4,0.0
EuSr2S4,4.2122648899084965
EuTa2S4,3.4095109217102593
EuTb2S4,0.0
EuTc2S4,0.0
EuTi2S4,0.2326507239906226
EuTm2S4,0.0
EuV2S4,0.0
EuW2S4,0.0
EuZn2S4,0.0
FeAg2S4,0.3084574351106175
FeAl2S4,0.37689510310051855
FeAu2S4,0.31369011899209553
FeB2S4,0.781757166635419
FeBa2S4,0.3199265677809384
FeBe2S4,0.5617081700475142
FeBi2S4,0.13132571584894315
FeC2S4,1.4868825931493177
FeCa2S4,0.3527776147625348
FeCd2S4,0.3421718554733557
FeCe2S4,0.21641845349337885
FeCo2S4,0.10930377897651056
FeCr2S4,0.0
FeCs2S4,4.0080690268553605
FeCu2S4,0.19356863933699575
FeEr2S4,0.13328308856614512
FeGa2S4,1.2864030235000854
FeGe2S4,0.960171854285826
FeH2S4,0.852978014215934
FeHf2S4,0.19875771147437948
FeHg2S4,0.30709397202987576
FeIn2S4,3.0164146536090195
FeIr2S4,0.06715074890395023
FeK2S4,0.4148566927286721
FeLa2S4,0.23540563902776945
FeLi2S4,1.3683402670254066
FeLu2S4,0.12297520299731168
FeMg2S4,0.2947251257686352
FeMn2S4,0.5835582473166863
FeMo2S4,0.0
FeNa2S4,0.4257889915463853
FeNb2S4,0.21934572606733926
FeNd2S4,0.20536781885081457
FeNi2S4,0.15721236353952506
FeOs2S4,0.11904127105954387
FeP2S4,0.38194842148811503
FePb2S4,0.2675749482591705
FePd2S4,1.2513527121128254
FePr2S4,0.2232456539064751
FePt2S4,0.11958022547690472
FeRb2S4,0.3998584575128872
FeRe2S4,0.7975223103770226
FeRh2S4,0.0825513355983114
FeRu2S4,0.23148418787239322
FeSb2S4,0.1285716949650766
FeSi2S4,0.3781045880417411
FeSm2S4,0.1864035263459245
FeSn2S4,2.995955655243535
FeSr2S4,1.8878006247629218
FeTa2S4,0.21280729092272033
FeTb2S4,0.17262149813592131
FeTc2S4,0.11310246481861608
FeTe2S4,0.26603452294765884
FeTi2S4,0.10869586173481949
FeTl2S4,0.29225229114556317
FeTm2S4,0.13897387413700724
FeV2S4,0.0
FeW2S4,0.0
FeY2S4,4.480467037395236
FeYb2S4,error
FeZn2S4,2.081983148331376
GaAg2S4,6.293375843776094
GaAu2S4,0.2126706715872726
GaB2S4,0.7410911275555279
GaBa2S4,0.19941346410249317
GaBe2S4,0.42111367010856604
GaBi2S4,0.07337818779229899
GaC2S4,1.5459949847943992
GaCa2S4,0.16198895596716056
GaCd2S4,0.14559926755439978
GaCe2S4,0.18260024594840285
GaCo2S4,0.05236837911148218
GaCu2S4,0.1834580118572191
GaEr2S4,0.06679271602199233
GaGd2S4,0.07946470862266075
GaHf2S4,0.19320186147282303
GaHg2S4,0.1789176480885919
GaHo2S4,0.0
GaIr2S4,0.023330749824110875
GaLa2S4,0.14837977589385964
GaLu2S4,0.04719698846256204
GaMg2S4,0.07778145377550771
GaMn2S4,0.0
GaMo2S4,0.0
GaNb2S4,0.20913554378252286
GaNd2S4,0.13048422258135428
GaNi2S4,1.02833665671545
GaP2S4,0.42845562722601205
GaPb2S4,0.09803444533557037
GaPr2S4,0.1401766625599814
GaPt2S4,2.5167672345255574
GaRe2S4,0.0
GaRh2S4,0.0
GaRu2S4,0.0
GaSb2S4,0.09427252077696835
GaSc2S4,0.0
GaSi2S4,0.46717409159012124
GaSm2S4,0.11234857523135222
GaSr2S4,1.4672465470895824
GaTa2S4,0.24979800039883227
GaTe2S4,0.1875547908037789
GaTi2S4,0.10800602419863914
GaTl2S4,0.0
GaTm2S4,0.07240867529259987
GaV2S4,0.0
GaW2S4,0.0
GaYb2S4,error
GaZn2S4,2.0844512365232033
GaZr2S4,0.11340603334566168
GdAg2S4,0.37979652461449476
GdAl2S4,0.0
GdAu2S4,0.3573704614872977
GdB2S4,1.11993372123389
GdBa2S4,0.18501905856582468
GdBi2S4,0.14866450626344818
GdCa2S4,0.20996960834563083
GdCd2S4,0.2608903157217979
GdCo2S4,0.33202625055539503
GdCu2S4,2.0850604296092445
GdDy2S4,0.03157669408957542
GdEr2S4,9.178047484720945
GdHf2S4,0.2780430543709329
GdHg2S4,4.838114508262467
GdIn2S4,0.1453504323460857