Formula,Ehull
PbGd2O4,0.043976850930043554
PbGe2O4,0.39202304904083096
PbHf2O4,0.6286382225522438
PbHg2O4,0.09838475540286185
PbHo2O4,0.03724682605401952
PbIn2O4,0.027951462596415233
PbIr2O4,0.1471276623558051
PbLa2O4,0.0820850633673933
PbLu2O4,0.032559228515038896
PbMg2O4,0.008838296240034182
PbMn2O4,0.06085543614431099
PbMo2O4,0.41083697640539274
PbN2O4,1.8859878649505193
PbNb2O4,0.32432664593333094
PbNd2O4,0.07485806965630815
PbNi2O4,0.26998323987430606
PbOs2O4,0.3200488059980975
PbP2O4,1.2103101150631685
PbPb2O4,0.08993800961271514
PbPd2O4,0.14769713211559488
PbPr2O4,0.07959611913812203
PbPt2O4,0.2761540499793762
PbRe2O4,0.39430170527610997
PbRh2O4,0.0
PbRu2O4,0.1744708518754452
PbS2O4,1.2431197184697265
PbSb2O4,0.2728668187900407
PbSc2O4,0.04540910061261094
PbSe2O4,0.5297143802998434
PbSi2O4,1.0837294350535611
PbSm2O4,0.05866734736455914
PbSn2O4,0.24981321784657062
PbSr2O4,0.12122321975299766
PbTa2O4,0.493617310920051
PbTb2O4,0.03439977423330465
PbTc2O4,0.2516917503280425
PbTe2O4,0.32696987563616364
PbTi2O4,0.33382166661897816
PbTl2O4,0.009543147139360109
PbTm2O4,0.04478755333320006
PbV2O4,0.0678285476742877
PbW2O4,0.9515736434477704
PbY2O4,0.04648182889112995
PbYb2O4,error
PbZn2O4,0.08568312999585714
PbZr2O4,0.5016544805761995
PdAg2O4,0.332654479802315
PdAl2O4,0.24072754239138394
PdAs2O4,0.38433379591030103
PdAu2O4,0.2877838164202462
PdB2O4,1.4724650322036812
PdBa2O4,0.48664394280914625
PdBe2O4,0.4045258038797641
PdBi2O4,0.31712685817178166
PdBr2O4,0.7135900222688463
PdC2O4,2.1705638604226767
PdCa2O4,0.3712471173000962
PdCd2O4,0.2373808837637723
PdCe2O4,0.5845311771114705
PdCl2O4,1.210850806595933
PdCo2O4,0.15598944496636502
PdCr2O4,0.17754454494118121
PdCu2O4,0.20401791027203675
PdDy2O4,0.4069761730887702
PdEr2O4,0.39489112786605673
PdEu2O4,0.3292041601447906
PdFe2O4,0.25259102758912366
PdGa2O4,0.22015738362414172
PdGd2O4,0.43920365213571877
PdGe2O4,0.4926739660948183
PdHf2O4,0.6174592105109724
PdHg2O4,0.31199338506398044
PdHo2O4,0.40139838442199327
PdI2O4,0.5482304792939137
PdIn2O4,0.22791113143541342
PdIr2O4,0.33184244728454004
PdLa2O4,0.5162933937101393
PdLu2O4,0.3656770614629554
PdMg2O4,0.1994597996644858
PdMn2O4,0.17473627712455198
PdMo2O4,0.4197157344916329
PdNb2O4,0.5197875935815386
PdNd2O4,0.4996895205405929
PdNi2O4,0.4086653561754261
PdOs2O4,0.4356110099296773
PdP2O4,1.0109714810471022
PdPb2O4,0.21904482123592217
PdPd2O4,0.22750169286777755
PdPr2O4,0.49326016718605814
PdPt2O4,0.36311426594825136
PdRe2O4,0.49915801712603525
PdRh2O4,0.19852293187599113
PdRu2O4,0.37947686654663304
PdS2O4,1.028690335124205
PdSb2O4,0.4276122395980124
PdSc2O4,0.30175799964917793
PdSe2O4,0.47177042851391615
PdSi2O4,0.9072943968541898
PdSm2O4,0.4389937559258019
PdSn2O4,0.39497179646718106
PdSr2O4,0.47787745962740136
PdTa2O4,0.6695711392025601
PdTb2O4,0.42212436225709027
PdTc2O4,0.4840967872463935
PdTe2O4,0.44117903441574047
PdTi2O4,0.42222503387757193
PdTl2O4,0.26342292290251557
PdTm2O4,0.38233638684284355
PdV2O4,0.29579603861469206
PdW2O4,0.8513642332926912
PdY2O4,0.39942555007452096
PdYb2O4,error
PdZn2O4,0.28993217513502234
PdZr2O4,0.600194270577969
PrAg2O4,0.30412731281798955
PrAl2O4,0.4496888858243544
PrAs2O4,0.7022980724748136
PrAu2O4,0.33055211224130154
PrB2O4,2.0137771703768985
PrBa2O4,0.1982398042123874
PrBe2O4,0.8428113710797422
PrBi2O4,0.23959396840138059
PrBr2O4,0.8723591979920124
PrC2O4,2.275661896940483
PrCa2O4,0.16984552476464732
PrCd2O4,0.16388397652194442
PrCe2O4,0.0
PrCl2O4,0.35290545294480147
PrCo2O4,0.2081306236935232
PrCr2O4,0.32003321497640425
PrCu2O4,0.3788888807257207
PrDy2O4,0.02552025504417621
PrEr2O4,0.04599370342680409
PrEu2O4,0.019656749546552277
PrFe2O4,0.2588916086328492
PrGa2O4,0.4345707682877693
PrGd2O4,0.0
PrGe2O4,0.5526829592458089
PrHf2O4,0.21065835860718707
PrHg2O4,0.2022258223565645
PrHo2O4,0.0
PrI2O4,0.7114320582421838
PrIn2O4,0.1651116322545434
PrIr2O4,0.4250350306996369
PrLa2O4,0.010956787193141082
PrLu2O4,0.007174693889018258
PrMg2O4,0.228962309457863
PrMn2O4,0.17482961905887073
PrMo2O4,0.6425232541867754
PrNb2O4,0.3561834767438121
PrNd2O4,0.0
PrNi2O4,0.4350988721008191
PrOs2O4,0.719696894800057
PrP2O4,1.9899420488304127
PrPb2O4,0.15755404964909037
PrPd2O4,0.39704065776996966
PrPr2O4,0.0
PrPt2O4,0.6691542612731158
PrRe2O4,0.5963136156141999
PrRh2O4,0.20699844198280726
PrRu2O4,0.39890118616256043
PrS2O4,1.5564924940412928
PrSb2O4,0.5571038556020813
PrSc2O4,0.057099139971686697
PrSe2O4,0.7689621178471198
PrSi2O4,1.0896069369106023
PrSm2O4,0.021744932879675716
PrSn2O4,0.49160210020158335
PrSr2O4,0.16399194972743647
PrTa2O4,0.5522931973176117
PrTb2O4,0.0
PrTc2O4,0.48981418171966506
PrTe2O4,0.5858153966750201
PrTi2O4,0.22044889247110966
PrTl2O4,0.16343970445400657
PrTm2O4,0.06601552549268064
PrV2O4,0.2195300850935018
PrW2O4,1.293252982443347
PrY2O4,0.0
PrYb2O4,error
PrZn2O4,0.28121839064563847
PrZr2O4,0.26315506201676087
PtAg2O4,0.3435324837041511
PtAl2O4,0.38229069998694243
PtAs2O4,0.5795896588181275
PtAu2O4,0.4707780130058721
PtB2O4,1.5432221330078457
PtBa2O4,0.5580252724865753
PtBe2O4,0.41792548462425305
PtBi2O4,0.5043464135265534
PtBr2O4,0.7311396120044091
PtC2O4,2.3151873051964564
PtCa2O4,0.40031139167335095
PtCd2O4,0.30825591810131137
PtCe2O4,0.8054680521907773
PtCl2O4,0.8787454825848688
PtCo2O4,0.20958272849280402
PtCr2O4,0.2754123324797453
PtCs2O4,0.2045296467329809
PtCu2O4,0.324022470148428
PtDy2O4,0.5560820898326293
PtEr2O4,0.5436948710248561
PtEu2O4,0.48373718380038966
PtFe2O4,0.29881150329301054
PtGa2O4,0.390257079088828
PtGd2O4,0.5423985032508742
PtGe2O4,0.8455038623558986
PtH2O4,1.149013282910638
PtHf2O4,0.9147625455135078
PtHg2O4,0.385890372337788
PtHo2O4,0.5437835412175467
PtI2O4,0.8230789593214096
PtIn2O4,0.41015247847304437
PtIr2O4,0.44647012338984116
PtK2O4,0.29674363969573836
PtLa2O4,0.6054496256236543
PtLi2O4,0.3840389050009101
PtLu2O4,0.5177227332693537
PtMg2O4,0.2747306956614377
PtMn2O4,0.2692864957106771
PtMo2O4,0.6707894272482493
PtN2O4,1.0152400767807768
PtNa2O4,0.3756627746874468
PtNb2O4,0.8623026981908026
PtNd2O4,0.5984865409728997
PtNi2O4,0.41318014236860723
PtOs2O4,0.5689872184558835
PtPb2O4,0.41702648410356336
PtPd2O4,0.43157342948693245
PtPr2O4,0.5811906503243911
PtPt2O4,0.5526960025276901
PtRb2O4,0.21598833955955676
PtRe2O4,0.8102864315037639
PtRh2O4,0.27709983011363715
PtRu2O4,0.541842189963627
PtSb2O4,0.6786986766119094
PtSc2O4,0.4577180121789475
PtSe2O4,0.6339739900077346
PtSi2O4,1.302451834730899
PtSm2O4,0.5893680321881387
PtSn2O4,0.6604666427773074
PtSr2O4,0.475293308552291
PtTa2O4,1.0611417819234532
PtTb2O4,0.5369102851046801
PtTc2O4,0.777096597543971
PtTe2O4,0.6742715018768637
PtTi2O4,0.7121600826443713
PtTl2O4,0.47936517345918084
PtTm2O4,0.5269152435865507
PtV2O4,0.4161548677414908
PtW2O4,1.2313031957830685
PtY2O4,0.5453548037251892
PtYb2O4,error
PtZn2O4,0.317477785287247
PtZr2O4,0.8912844918509926
RbAs2O4,0.44994209451563183
RbAu2O4,0.22811480860356692
RbBi2O4,0.08139251674989278
RbC2O4,2.5777782912284426
RbCe2O4,0.04641378559651166
RbCo2O4,0.25499814917684027
RbCr2O4,0.2515289126552114
RbCu2O4,0.3466921922899475
RbDy2O4,0.14498860982191708
RbEr2O4,0.1415675773804299
RbEu2O4,0.08586435901925427
RbFe2O4,0.31550850935555896
RbGa2O4,0.28555819062004506
RbGd2O4,0.13371247444676726
RbGe2O4,0.5624083346355881
RbHf2O4,0.2446008268143185
RbIr2O4,0.04113683102584886
RbLa2O4,0.07283737951870961
RbMn2O4,0.225465116914064
RbMo2O4,0.4810981526642113
RbNb2O4,0.299228599044552
RbNd2O4,0.112397820144154
RbNi2O4,0.651719572716253
RbOs2O4,0.4239892459132406
RbPb2O4,0.050580879081008945
RbPd2O4,0.07376356476089274
RbPr2O4,0.15430040228971276
RbPt2O4,0.010192832793385342
RbRe2O4,0.6176799457430509
RbRh2O4,0.0
RbRu2O4,0.2063667307096848
RbSb2O4,0.26339940668087447
RbSe2O4,0.5020346021262023
RbSi2O4,0.9549525037422812
RbSm2O4,0.11127127121279301
RbSn2O4,0.1951722663798714
RbTa2O4,0.47643541522342403
RbTb2O4,0.16416486684423237
RbTc2O4,0.38527446039857605
RbTe2O4,0.23617288870179465
RbTi2O4,0.2553799564592234
RbV2O4,0.2753258563067513
RbW2O4,0.8801082478328377
RbY2O4,0.13979070059301968
RbYb2O4,error
RbZn2O4,0.516558584810376
RbZr2O4,0.17907494862171802
ReAg2O4,0.15273876078325355
ReAl2O4,0.6740190357427398
ReAs2O4,0.6729173940606676
ReAu2O4,0.3219331214938155
ReB2O4,1.579702717341001
ReBa2O4,0.42418721229699763
ReBe2O4,0.43601313847126644
ReBi2O4,0.36321921372733446
ReBr2O4,0.27760511193004156
ReC2O4,1.9167210018272183
ReCa2O4,0.3017042109500121
ReCd2O4,0.17397362032992092
ReCe2O4,0.8074628742148189
ReCl2O4,0.4494000893672787
ReCo2O4,0.5989146951678537
ReCr2O4,0.4728679516845329
ReCs2O4,0.0
ReCu2O4,0.3287354556556137
ReDy2O4,0.7467066302037413
ReEr2O4,0.7003297894404596
ReEu2O4,0.3605810068241677
ReFe2O4,0.5327739814250068
ReGa2O4,0.561236392959529
ReGd2O4,0.7056897017902148
ReGe2O4,0.5986765406874826
ReH2O4,1.1799352617266852
ReHf2O4,1.1334119012023276
ReHg2O4,0.0
ReHo2O4,0.7172047593398698
ReI2O4,0.07444261811285635
ReIn2O4,0.20422234014980223
ReIr2O4,0.8437724581860104
ReK2O4,0.0
ReLa2O4,0.8201450015953746
ReLi2O4,0.046730053658738946
ReLu2O4,0.7124986728713214
ReMg2O4,0.2718424300478244
ReMn2O4,0.34940471280653895
ReMo2O4,1.1454866239890311
ReN2O4,1.6773223245956261
ReNa2O4,0.016899175061364957
ReNb2O4,0.8265142944040402
ReNd2O4,0.7026487663501602
ReNi2O4,0.8449314055484285
ReOs2O4,0.9021786459512029
ReP2O4,1.1795037570351408
RePb2O4,0.1659898562064237
RePd2O4,0.36739858755418275
RePr2O4,0.6808330835384453
RePt2O4,0.899126721812137
ReRb2O4,0.0
ReRe2O4,0.7009108982898251
ReRh2O4,0.465841967602282
ReRu2O4,0.6135048320246588
ReS2O4,1.9190067666643955
ReSb2O4,1.336232708060642
ReSc2O4,0.570269860774193
ReSe2O4,0.3651602272808372
ReSi2O4,1.4287462779707836
ReSm2O4,0.6988298383565041
ReSn2O4,0.2642286915341501
ReSr2O4,0.41342893181189755
ReTa2O4,1.240426465488433
ReTb2O4,0.7239887914075851
ReTc2O4,0.5267288084227086
ReTe2O4,0.1757823263361855
ReTi2O4,0.7963373624606831
ReTl2O4,0.0
ReTm2O4,0.7331538972267868
ReV2O4,0.4847111725252091
ReW2O4,1.8619771565627472
ReY2O4,0.725867125040331
ReYb2O4,error
ReZn2O4,0.31547981326000496
ReZr2O4,1.0494478230708353
RhAg2O4,0.27471904938462455
RhAl2O4,0.2621336889316428
RhAs2O4,0.502029714847902
RhAu2O4,0.4166682631329275
RhB2O4,1.309734947526361
RhBa2O4,0.3858466052346259
RhBe2O4,0.43132461154810287
RhBi2O4,0.39574177880682715
RhC2O4,1.927295526417029
RhCa2O4,0.272230197787402
RhCd2O4,0.23678757132669137
RhCe2O4,0.8152492051153244
RhCl2O4,0.7432625773653196
RhCo2O4,0.19887504608546003
RhCr2O4,0.22622511799908196
RhCu2O4,0.23494541357568632
RhDy2O4,0.5431652914725795
RhEr2O4,0.5270068291816346
RhEu2O4,0.3424577669212887
RhFe2O4,0.2925799904495996
RhGa2O4,0.24269195397446275
RhGd2O4,0.5326083854185732
RhGe2O4,0.6487800327925157
RhHf2O4,0.8819976533597966
RhHg2O4,0.3233461356565748
RhHo2O4,0.5223195631091118
RhI2O4,0.703722864975683
RhIn2O4,0.3344737267211242
RhIr2O4,0.34039659388677546
RhLa2O4,0.5972179279031238
RhLu2O4,0.49800822451928095
RhMg2O4,0.19961304425170034
RhMn2O4,0.19480432902023104
RhMo2O4,0.6364464936879779
RhNb2O4,0.8019240379037509
RhNd2O4,0.5845850969806161
RhNi2O4,0.4033779223735863
RhOs2O4,0.37704434427440603
RhP2O4,1.1401599726117837
RhPb2O4,0.31489561253879117
RhPd2O4,0.26556681182186015
RhPr2O4,0.593897697485378
RhPt2O4,0.4386842163538205
RhRe2O4,0.5657889308872317
RhRh2O4,0.08028616619675155
RhRu2O4,0.28463778037810084
RhS2O4,0.7414731008595856
RhSb2O4,0.6316763347762242
RhSc2O4,0.4109298682512028
RhSe2O4,0.5785024927254074
RhSi2O4,1.1134369691366075
RhSm2O4,0.5812607573526192
RhSn2O4,0.591134109919154
RhSr2O4,0.37201531439438895
RhTa2O4,0.9997954471461501
RhTb2O4,0.5344623877296195
RhTc2O4,0.47385390427370755
RhTe2O4,0.5878806682196149
RhTi2O4,0.6358913469830867
RhTl2O4,0.2958504443844143
RhTm2O4,0.525934774399814
RhV2O4,0.33267124027229045
RhW2O4,1.2439074826916725
RhY2O4,0.521782154681933
RhYb2O4,error
RhZn2O4,0.2634417703162626
RhZr2O4,0.9022013490533212
RuAg2O4,0.042629606891588345
RuAl2O4,0.39252727850585156
RuAs2O4,0.6872929463234918
RuAu2O4,0.2988114641459605
RuB2O4,1.3835380889741327
RuBa2O4,0.40058098392717145
RuBe2O4,0.38902395275748436
RuBi2O4,0.4315915376159625
RuBr2O4,0.20835151780904582
RuC2O4,1.9059798335906075
RuCa2O4,0.2593097696084028
RuCd2O4,0.20717720019436658
RuCe2O4,0.877389815716108
RuCl2O4,0.3241314636119954
RuCo2O4,0.15833065339764385
RuCr2O4,0.3378896959032147
RuCs2O4,0.10813139469721289
RuCu2O4,0.19612615383326126
RuDy2O4,0.6857341126427334
RuEr2O4,0.6858475183002231
RuEu2O4,0.36627652226966667
RuFe2O4,0.2952965323505552
RuGa2O4,0.3376104336470478
RuGd2O4,0.6793107383901056
RuGe2O4,0.6800540019477106
RuH2O4,0.9679527510519135
RuHf2O4,1.0470872862163034
RuHg2O4,0.07105006151932525
RuHo2O4,0.6707736805302167
RuI2O4,0.22132675743078956
RuIn2O4,0.44144647312632923
RuIr2O4,0.4531684246296912
RuK2O4,0.0785461366072786
RuLa2O4,0.7205679102704909
RuLi2O4,0.022479512121856615
RuLu2O4,0.6720658281545004
RuMg2O4,0.21202317021337347
RuMn2O4,0.17204258373705983
RuMo2O4,0.7534376955828481
RuN2O4,1.551270526400204
RuNa2O4,0.058168570741484515
RuNb2O4,0.7990381430542595
RuNd2O4,0.6955143913084099
RuNi2O4,0.3774476389325363
RuOs2O4,0.5744169833442223
RuP2O4,1.3149833631895413
RuPb2O4,0.2759095802324243
RuPd2O4,0.32003457947921987
RuPr2O4,0.7450943166827706
RuPt2O4,0.5645333994305206
RuRb2O4,0.09802042314569981
RuRe2O4,0.6785520598888954
RuRh2O4,0.17131810426823968
RuRu2O4,0.3382382392610772
RuS2O4,0.17392362496183456
RuSb2O4,0.6445373278764013
RuSc2O4,0.5170205362321774
RuSe2O4,0.5132210398353809
RuSi2O4,1.2393852920537514
RuSm2O4,0.6722886651729905
RuSn2O4,0.6492968366277703
RuSr2O4,0.3635810382381992
RuTa2O4,1.0137099648507562
RuTb2O4,0.694353058796013
RuTc2O4,0.5075546151547385
RuTe2O4,0.5067630596841894
RuTi2O4,0.7477444161385289
RuTl2O4,0.025308149027053695
RuTm2O4,0.6902812824266586
RuV2O4,0.40978522356105973
RuW2O4,1.3588910680553363
RuY2O4,0.658775459546364
RuYb2O4,error
RuZn2O4,0.2345891293864355
RuZr2O4,0.9785730760530598
SAg2O4,0.036516371211132714
SAl2O4,0.35606217930590045
SAu2O4,0.2679977410289043
SB2O4,1.773207831224899
SBa2O4,0.6930731055881356
SBe2O4,0.8008507025241052
SBi2O4,0.32944778826093835
SBr2O4,0.3336654870346196
SC2O4,2.3397535373105445
SCa2O4,0.8527645456830513
SCd2O4,0.22608707091393043
SCe2O4,0.7836119838580125
SCl2O4,0.0
SCo2O4,0.5157251475471787
SCr2O4,0.6303667329122931
SCs2O4,0.21178139781338512
SCu2O4,0.1437578293153603
SEr2O4,0.39523981077659887
SEu2O4,0.8716134313372397
SFe2O4,0.4897146982001592
SGd2O4,0.27648466777931446
SH2O4,0.7302193266795509
SHf2O4,0.8593703423692549
SHg2O4,0.13996275719829665
SI2O4,0.3680353503753464
SIn2O4,0.26984716293450983
SIr2O4,0.5750351210676232
SK2O4,0.14677222596768136
SLi2O4,0.11094445298483624
SLu2O4,1.6143171899159983
SMg2O4,0.7287812141956289
SMn2O4,0.44395656035467557
SMo2O4,0.8582290876768042
SN2O4,1.6890734937055951
SNa2O4,0.10008574398734726
SNb2O4,0.7634165793733256
SNi2O4,0.9845062757139997
SOs2O4,0.6442892186437188
SP2O4,1.2634671611262966
SPb2O4,0.17876192245956712
SPd2O4,0.27279848350829017
SPt2O4,0.5512446895261922
SRb2O4,0.18267870562283672
SRe2O4,0.9364139790113208
SRh2O4,0.421261400441888
SRu2O4,0.48177746064461946
SSb2O4,0.0
SSc2O4,0.7412991397099491
SSe2O4,0.348068999510704
SSi2O4,1.4602459596022328
SSm2O4,0.4020021784196972
SSn2O4,0.3485897456545848
SSr2O4,0.8566482191837359
STa2O4,1.0531409611418834
STb2O4,1.6098746630276084
STc2O4,0.727043507858383
STe2O4,0.19142608933421545
STi2O4,0.7556415194708483
STl2O4,0.10750544652711902
STm2O4,0.4346397713830852
SV2O4,0.6123594729219262
SW2O4,1.4078119792556567
SYb2O4,error
SZn2O4,0.5084735225780097
SZr2O4,0.8145455207861376
SbAg2O4,0.2026287206556212
SbAl2O4,0.3770540675438694
SbAs2O4,0.5211710577188118
SbAu2O4,0.3579496846453676
SbB2O4,1.594093909146638
SbBa2O4,0.19931993630400413
SbBe2O4,0.35043538412928665
SbBi2O4,0.2047642846071671
SbBr2O4,0.7513101360273216
SbC2O4,2.0344048776603314
SbCa2O4,0.07889755590354763
SbCd2O4,0.056955819958214526
SbCe2O4,0.0
SbCl2O4,0.9610442261881067
SbCo2O4,0.22699431294523364
SbCr2O4,0.15385426750788955
SbCu2O4,0.14814280859172957
SbDy2O4,0.26772557322051593
SbEr2O4,0.26253132745648156
SbEu2O4,0.10067673126579635
SbFe2O4,0.29618903484014947
SbGa2O4,0.2960750773759342
SbGd2O4,0.26067598229924904
SbGe2O4,0.4606393215903495
SbHf2O4,0.7860556484669079
SbHg2O4,0.20944176053173802
SbHo2O4,0.268254926129452
SbI2O4,0.5408211009496
SbIn2O4,0.16301183931641194
SbIr2O4,0.3932478607037089
SbLa2O4,0.3217024139391924
SbLu2O4,0.25665726194693406
SbMg2O4,0.06896874155295585
SbMn2O4,0.06733382300875945
SbMo2O4,0.5350128746114979
SbN2O4,1.7669907516740162
SbNb2O4,0.5538086946865812
SbNd2O4,0.30425990797211533
SbNi2O4,0.3439121167723105
SbOs2O4,0.5948354722508773
SbP2O4,1.1703577884174043
SbPb2O4,0.13803793952189203
SbPd2O4,0.35475035144897316
SbPr2O4,0.31315225399233526
SbPt2O4,0.6111665841736942
SbRe2O4,0.5741398305973773
SbRh2O4,0.2430207315775208
SbRu2O4,0.3587699204924899
SbSb2O4,0.39243393697138895
SbSc2O4,0.22041424740368765
SbSe2O4,0.6178683397914337
SbSi2O4,1.2559785436269442
SbSm2O4,0.27247709097543815
SbSn2O4,0.3404958126990705
SbSr2O4,0.10506243337563603
SbTa2O4,0.8287251945292002
SbTb2O4,0.28445394420295766
SbTc2O4,0.41715049298621576
SbTe2O4,0.11157955582261003
SbTi2O4,0.4722267385923269
SbTl2O4,0.2440117905744783
SbTm2O4,0.2696863733408126
SbV2O4,0.1610982777015586
SbW2O4,1.1713286044730609
SbY2O4,0.25325923215551516
SbYb2O4,error
SbZn2O4,0.1305479114257393
SbZr2O4,0.643950886246774
ScAg2O4,0.30617555326319135
ScAl2O4,0.3074853145665033
ScAs2O4,0.563514058535949
ScAu2O4,0.3344988521148995
ScB2O4,1.76675438871258
ScBi2O4,0.27875520786227614
ScBr2O4,0.8163407706675443
ScC2O4,2.1447320548547584
ScCe2O4,0.11663648136058846
ScCo2O4,0.12335687269353457
ScCr2O4,0.24364514042115637
ScCu2O4,0.20066714407945252
ScDy2O4,0.1298158952875763
ScEr2O4,0.14649336896592047
ScEu2O4,0.07518456444795873
ScFe2O4,0.1745600308241837
ScGa2O4,0.2927829139802176
ScGd2O4,0.09359163337580334
ScGe2O4,0.5120282182355949
ScHf2O4,0.22000021633704847
ScHo2O4,0.11662368451791316
ScI2O4,0.6691066004115758
ScIn2O4,0.2170062577233356
ScIr2O4,0.495459827706366
ScLa2O4,0.15253469703279166
ScLu2O4,0.14525584661615376
ScMn2O4,0.08524864803187526
ScMo2O4,0.5921613854247427
ScNb2O4,0.25455020076552515
ScNd2O4,0.1255197527255678
ScNi2O4,0.32685221226972416
ScOs2O4,0.6731247201789099
ScP2O4,1.25557901149649
ScPb2O4,0.19599840954806247
ScPd2O4,0.33886609973641324
ScPr2O4,0.11186110797737925
ScPt2O4,0.6510640583909009
ScRe2O4,0.5472645943035346
ScRh2O4,0.1834576758434343
ScRu2O4,0.394304525191826
ScS2O4,0.26375945017195335
ScSb2O4,0.47275532785558916
ScSc2O4,0.026786357642528458
ScSe2O4,0.7256628238671485
ScSi2O4,1.0215164009446083
ScSm2O4,0.12803627185716238
ScSn2O4,0.3989584229645109
ScSr2O4,0.20991355864774874
ScTa2O4,0.4421476763786494
ScTb2O4,0.0902716861331978
ScTc2O4,0.4808218190021929
ScTe2O4,0.5535434706046969
ScTi2O4,0.10934223452330016
ScTl2O4,0.17079862251972067
ScTm2O4,0.18901827023774231
ScV2O4,0.12704241992975795
ScW2O4,1.2092170700928024
ScY2O4,0.07674229320100245
ScYb2O4,error
ScZn2O4,0.20602773137813468
ScZr2O4,0.19011728841759457
SeAg2O4,0.03747274267772038
SeAl2O4,0.4932727330890323
SeAs2O4,0.6607026038783461
SeAu2O4,0.29738533864650396
SeB2O4,1.6044686056534783
SeBa2O4,0.08692215108730306
SeBe2O4,0.5038745700441858
SeBi2O4,0.182216738498175
SeBr2O4,0.5402737155928361
SeC2O4,2.2438668782033204
SeCa2O4,0.23463925302670408
SeCd2O4,0.33905654345868896
SeCe2O4,0.7214743104404775
SeCl2O4,0.6312090546576252
SeCo2O4,0.26789939317952616
SeCr2O4,0.28746733990297546
SeCs2O4,0.18016324762581792
SeCu2O4,0.2836389237123562
SeDy2O4,0.48503189522586254
SeEr2O4,0.2949370038141135
SeEu2O4,0.44332006994035744
SeFe2O4,0.3443377037878106
SeGa2O4,0.4491215232763386
SeGd2O4,0.5266945254481694
SeGe2O4,0.7922356831209791
SeH2O4,0.7537669591793836
SeHf2O4,0.7608537706365741
SeHg2O4,0.13167844127528117
SeHo2O4,0.29427734296973274
SeI2O4,0.43618761887457413
SeIn2O4,0.16370709689784224
SeIr2O4,0.32926669772696204
SeK2O4,0.11692808843696856
SeLi2O4,0.0801006918285978
SeLu2O4,0.43420119465389284
SeMg2O4,0.30938854234399216
SeMn2O4,0.2998798978002757
SeMo2O4,0.6040512530599109