Formula,Ehull
GaTc2O4,0.30256910742561516
GaTe2O4,0.4362100634806323
GaTi2O4,0.1818420582058522
GaTl2O4,0.14230390687762107
GaTm2O4,0.22992102306719886
GaV2O4,0.03716334666071752
GaW2O4,1.1115419420362542
GaY2O4,0.20529404974681054
GaYb2O4,error
GaZn2O4,0.1721842833179137
GaZr2O4,0.45615775546617243
GdAg2O4,0.3113396230980543
GdAl2O4,0.3832110050694837
GdAs2O4,0.6591130674760839
GdAu2O4,0.38672130997745935
GdB2O4,1.923458179912246
GdBa2O4,0.19820206586806322
GdBe2O4,0.7298786514281117
GdBi2O4,0.2723859414905849
GdBr2O4,0.8526871291945604
GdC2O4,2.2515826182252425
GdCa2O4,0.14105435471729066
GdCd2O4,0.15211029777498997
GdCe2O4,0.07651716002362541
GdCo2O4,0.18955783225465694
GdCr2O4,0.28426380933566087
GdCu2O4,0.33026040856051164
GdDy2O4,0.047855796028658304
GdEr2O4,0.05622534344771424
GdEu2O4,0.029935689757396133
GdFe2O4,0.22497421192510636
GdGa2O4,0.3902480432101676
GdGd2O4,0.0
GdGe2O4,0.5882820915970282
GdHf2O4,0.2758890136651555
GdHg2O4,0.21864812627057884
GdHo2O4,0.017200663543496475
GdI2O4,0.7301644549482491
GdIn2O4,0.1957554493390763
GdIr2O4,0.4545116657228032
GdLa2O4,0.037370370543316156
GdLu2O4,0.027985783124453434
GdMg2O4,0.18988764763938715
GdMn2O4,0.1329105125282002
GdMo2O4,0.6261947668870231
GdNb2O4,0.3373272398281504
GdNd2O4,0.027248201209390643
GdNi2O4,0.39811328197669926
GdOs2O4,0.7383975126468929
GdPb2O4,0.16657550397327636
GdPd2O4,0.40764464120686306
GdPr2O4,0.002460650120408303
GdPt2O4,0.7031069352135066
GdRe2O4,0.6047150829842849
GdRh2O4,0.17897135752427396
GdRu2O4,0.39969284059914756
GdS2O4,1.3430403624848157
GdSb2O4,0.5617495278556044
GdSc2O4,0.03190757764438068
GdSe2O4,0.6227192202176415
GdSi2O4,1.0750665320201698
GdSm2O4,0.04986169348726399
GdSn2O4,0.45468069234200126
GdSr2O4,0.14716693634920208
GdTa2O4,0.5706281159681907
GdTb2O4,0.0
GdTc2O4,0.5471448490606381
GdTe2O4,0.5948929503065159
GdTi2O4,0.19542907923490382
GdTl2O4,0.17243614614158798
GdTm2O4,0.08751299227870923
GdV2O4,0.18331935461450044
GdW2O4,1.292948939132824
GdY2O4,0.005920078870335743
GdYb2O4,error
GdZn2O4,0.24984707177303989
GdZr2O4,0.23070237155846307
GeAg2O4,0.16197602654424337
GeAl2O4,0.3001208904534538
GeAs2O4,0.4931960068751211
GeAu2O4,0.3226327747799189
GeB2O4,1.5330727005314042
GeBa2O4,0.3146882969331086
GeBe2O4,0.2432508015608965
GeBi2O4,0.2736195497324765
GeBr2O4,0.7414810365984552
GeC2O4,1.8405741632002082
GeCa2O4,0.14012121513583686
GeCd2O4,0.08265935891849718
GeCe2O4,0.422298652410789
GeCo2O4,0.019098648697676524
GeCr2O4,0.17848881684241658
GeCu2O4,0.12502721932214644
GeDy2O4,0.27501452087811185
GeEr2O4,0.2625055791425215
GeEu2O4,0.03852568683726609
GeFe2O4,0.12246064081082242
GeGa2O4,0.24133567415413903
GeGd2O4,0.27726415097018453
GeGe2O4,0.3673739880912006
GeHf2O4,0.6605313603492426
GeHg2O4,0.1161653856515521
GeHo2O4,0.2644763903963021
GeI2O4,0.5418915746628059
GeIn2O4,0.22489677536358776
GeIr2O4,0.43364055886043307
GeLa2O4,0.3714295186953738
GeLu2O4,0.24485562390263826
GeMg2O4,0.0
GeMn2O4,0.0255828431946572
GeMo2O4,0.6124663479079242
GeN2O4,1.7101089220637684
GeNb2O4,0.43929895017296516
GeNd2O4,0.3391057980549341
GeNi2O4,0.167641673850369
GeOs2O4,0.670695948761252
GeP2O4,0.9320129181630685
GePb2O4,0.15560769854348955
GePd2O4,0.33118801702051126
GePr2O4,0.29807882409668185
GePt2O4,0.656864954519544
GeRe2O4,0.5275695917504803
GeRh2O4,0.18086165549545985
GeRu2O4,0.3654757165113445
GeS2O4,1.1624079762730402
GeSb2O4,0.37014327842204064
GeSc2O4,0.2004188539571512
GeSe2O4,0.6329201219517833
GeSi2O4,1.1545657302662757
GeSm2O4,0.29761344094554776
GeSn2O4,0.21676642791206113
GeSr2O4,0.23119992337414264
GeTa2O4,0.6731440170412775
GeTb2O4,0.279485483877405
GeTc2O4,0.4004502855021528
GeTe2O4,0.39945415659373573
GeTi2O4,0.3751152846076442
GeTl2O4,0.18387515291412804
GeTm2O4,0.2570151449864335
GeV2O4,0.13860603784766656
GeW2O4,1.1851193895367622
GeY2O4,0.2529661197353299
GeYb2O4,error
GeZn2O4,0.08110858850796987
GeZr2O4,0.5613749567907877
HAs2O4,0.6599090819967675
HBi2O4,0.6832594264852654
HCe2O4,0.574921551431756
HCo2O4,0.32931702415453046
HCr2O4,0.4682062589816649
HCu2O4,0.49206853532984685
HDy2O4,0.8616672517565522
HEr2O4,0.8613968685297726
HEu2O4,0.829795810471758
HFe2O4,0.5596009527801353
HGa2O4,0.5721326468318635
HGd2O4,0.8739383772584279
HGe2O4,0.4744045213631569
HHf2O4,0.4845865773995275
HIr2O4,0.5972679457763732
HLa2O4,0.912641727173451
HMn2O4,0.4671011276766075
HMo2O4,0.5929516409382485
HNb2O4,0.30821955329853523
HNd2O4,0.9695086560819552
HNi2O4,0.7090049956372289
HOs2O4,0.5294213474195981
HP2O4,0.9623644091856196
HPb2O4,0.5500544409187569
HPd2O4,0.434340902051094
HPr2O4,0.9871668197449672
HPt2O4,0.23608045772999198
HRe2O4,0.39702683178534404
HRh2O4,0.4256596084472086
HRu2O4,0.4858746425028784
HS2O4,1.2345763925543816
HSe2O4,0.7803336226472819
HSi2O4,0.6584299307776682
HSm2O4,0.9262186095211895
HSn2O4,0.4955014897491914
HTa2O4,0.46836800249369226
HTb2O4,0.9074814663549144
HTc2O4,0.3855780319916198
HTe2O4,0.850012844690732
HTi2O4,0.39716626161394064
HV2O4,0.44246106268166674
HW2O4,1.0486188755777217
HY2O4,0.8762020794979382
HYb2O4,error
HZn2O4,0.7538940901687208
HZr2O4,0.49613105817391023
HfAg2O4,0.3557876252569372
HfAl2O4,0.41224769008957374
HfAs2O4,0.8319522372275916
HfAu2O4,0.4920658907371136
HfB2O4,1.8908406041468862
HfBa2O4,0.24579860485627947
HfBe2O4,0.5309648073949251
HfBi2O4,0.45272854454387446
HfBr2O4,0.8900812159743943
HfC2O4,2.2608964453804186
HfCa2O4,0.08709899605478455
HfCd2O4,0.1130823688550846
HfCe2O4,0.1667402231366708
HfCl2O4,1.1186024094862894
HfCo2O4,0.18949573808438736
HfCr2O4,0.481222141312319
HfCu2O4,0.3184650958074604
HfDy2O4,0.3879566956161895
HfEr2O4,0.363263755604466
HfEu2O4,0.10311480454849686
HfFe2O4,0.3187195906667224
HfGa2O4,0.6270570742972295
HfGd2O4,0.30574809432830996
HfGe2O4,0.5803427080487236
HfHf2O4,0.31561974022482
HfHg2O4,0.2588910412838663
HfHo2O4,0.3360307597543475
HfI2O4,0.713321169639249
HfIn2O4,0.41747377060382806
HfIr2O4,0.7989372885184682
HfLa2O4,0.33300887364570286
HfLu2O4,0.3469570661573016
HfMg2O4,0.08951362443898603
HfMn2O4,0.11935958571125127
HfMo2O4,0.8682671248256355
HfN2O4,2.140632713385573
HfNb2O4,0.5279526493175624
HfNd2O4,0.2928592980064675
HfNi2O4,0.3325188014239089
HfOs2O4,0.9458360762104299
HfP2O4,1.3258682231067151
HfPb2O4,0.2149637314745858
HfPd2O4,0.49608051189805646
HfPr2O4,0.23234822485177453
HfPt2O4,0.8502514127364993
HfRe2O4,0.8440726118579462
HfRh2O4,0.4376797166883515
HfRu2O4,0.6376559751770579
HfS2O4,1.5224634259030063
HfSb2O4,0.25109881723099203
HfSc2O4,0.1214586723468507
HfSe2O4,0.8185418658776245
HfSi2O4,1.3810727499748952
HfSm2O4,0.2985230892835613
HfSn2O4,0.4303267934871897
HfSr2O4,0.15244098866247136
HfTa2O4,0.699319605578296
HfTb2O4,0.34757891328123414
HfTc2O4,0.703229898604409
HfTe2O4,0.6728824724764468
HfTi2O4,0.28121991079793496
HfTl2O4,0.229096332307277
HfTm2O4,0.35673592785960473
HfV2O4,0.34622482117279496
HfW2O4,1.6149552119473132
HfY2O4,0.2810705017058357
HfYb2O4,error
HfZn2O4,0.1933393812324704
HfZr2O4,0.3332127277163348
HgAg2O4,0.1851607948104279
HgAl2O4,0.0825547584374382
HgAs2O4,0.3357414766875806
HgAu2O4,0.11750575718234835
HgB2O4,1.4291312877821554
HgBi2O4,0.10196826153826333
HgBr2O4,0.655617575929516
HgC2O4,2.2333915524543793
HgCe2O4,0.3656241551570494
HgCl2O4,0.3364574413830126
HgCo2O4,0.0694216428706067
HgCr2O4,0.05105597947756202
HgCu2O4,0.09116476541181928
HgDy2O4,0.08040334247478764
HgEr2O4,0.07173918171385196
HgEu2O4,0.09958086654570675
HgFe2O4,0.07679905499586237
HgGa2O4,0.03784967289357599
HgGd2O4,0.11464010231482646
HgGe2O4,0.4713061012528623
HgHf2O4,0.5317720249971778
HgHo2O4,0.06851227562962503
HgI2O4,0.39767017125717663
HgIn2O4,0.0057507007353345685
HgIr2O4,0.18886605187603767
HgLa2O4,0.1944987323110965
HgLu2O4,0.05231415224454139
HgMn2O4,0.06051151839910229
HgMo2O4,0.3028948044205366
HgN2O4,0.9340645244990711
HgNb2O4,0.37199395128456203
HgNd2O4,0.1867468191004127
HgNi2O4,0.34671398262080544
HgOs2O4,0.3504259065258637
HgP2O4,1.1447176814432902
HgPb2O4,0.03142958329037793
HgPd2O4,0.05174457165134516
HgPr2O4,0.14871510304170776
HgPt2O4,0.12790890078014971
HgRe2O4,0.4716012471378326
HgRh2O4,0.04312933180986889
HgRu2O4,0.25544968249766953
HgS2O4,1.170439590936334
HgSb2O4,0.3497662274999076
HgSc2O4,0.03073867594382751
HgSe2O4,0.4362851191418624
HgSi2O4,1.0588727552878892
HgSm2O4,0.14430615695951587
HgSn2O4,0.35431910766184327
HgSr2O4,0.40735087870443376
HgTa2O4,0.5209719885101052
HgTb2O4,0.07898689300618145
HgTc2O4,0.356996123667642
HgTe2O4,0.3269544409795522
HgTi2O4,0.42204910395058626
HgTl2O4,0.053334428850091875
HgTm2O4,0.05759413689761317
HgV2O4,0.1566612260021909
HgW2O4,0.7766895816666288
HgY2O4,0.07303338127233072
HgYb2O4,error
HgZn2O4,0.24173032115181403
HgZr2O4,0.46907847896483723
HoAg2O4,0.33451081662141213
HoAl2O4,0.3451807734419816
HoAs2O4,0.6198536605985678
HoAu2O4,0.36227899603194924
HoB2O4,1.8522453666303775
HoBi2O4,0.2906657579549945
HoBr2O4,0.875604901649897
HoC2O4,2.2177267877261952
HoCe2O4,0.09514276403970001
HoCl2O4,0.28211941327050205
HoCo2O4,0.18537712922166794
HoCr2O4,0.26466740960707114
HoCu2O4,0.32276451048806365
HoDy2O4,0.08574267772184996
HoEr2O4,0.08951108519767104
HoEu2O4,0.05635362811191236
HoFe2O4,0.21375965580116585
HoGa2O4,0.37327349872584303
HoGd2O4,0.04467993751970312
HoGe2O4,0.591819096760597
HoHf2O4,0.2625394919582611
HoHo2O4,0.043467122982359996
HoI2O4,0.7559708264334422
HoIn2O4,0.20579823156180765
HoIr2O4,0.46856726087531886
HoLa2O4,0.08442688062827663
HoLu2O4,0.06219899427962794
HoMn2O4,0.14206622057016283
HoMo2O4,0.5906120444448559
HoNb2O4,0.3301946499184911
HoNd2O4,0.06677723737720243
HoNi2O4,0.39792752123148034
HoOs2O4,0.7069121365113062
HoPb2O4,0.18602957373184115
HoPd2O4,0.3499615120996271
HoPr2O4,0.04165138932620671
HoPt2O4,0.7715077180769647
HoRe2O4,0.5810229503699933
HoRh2O4,0.1857357501792496
HoRu2O4,0.4096845181081532
HoS2O4,1.519771492204538
HoSb2O4,0.5545766738298106
HoSc2O4,0.05208117209256358
HoSe2O4,0.77804761701048
HoSi2O4,1.0705401156165033
HoSm2O4,0.09319012968029838
HoSn2O4,0.4268105348220059
HoSr2O4,0.1890402466642378
HoTa2O4,0.5584526445835092
HoTb2O4,0.030791876498112103
HoTc2O4,0.5225685866448115
HoTe2O4,0.5851904349277159
HoTi2O4,0.1704941001311404
HoTl2O4,0.1852675292690522
HoTm2O4,0.12980927180325175
HoV2O4,0.16254133657738024
HoW2O4,1.2693884294816185
HoY2O4,0.03701731962937771
HoYb2O4,error
HoZn2O4,0.26260215822691535
HoZr2O4,0.25697510321418626
IAg2O4,0.09408925427688164
IAs2O4,0.5737665997021502
IAu2O4,0.2833449251247715
IB2O4,1.7598325404177997
IBi2O4,0.34627250573461055
IC2O4,2.4125683113456775
ICa2O4,0.29692861567889217
ICd2O4,0.15992857899375013
ICe2O4,0.0
ICl2O4,0.6052000831180293
ICo2O4,0.18356342857472008
ICr2O4,0.28416300954885454
ICu2O4,0.19758998615825618
IDy2O4,0.3316506931339225
IEr2O4,0.3460557643786215
IEu2O4,0.27813634456538683
IFe2O4,0.2424066408168537
IGa2O4,0.40777717610740805
IGd2O4,0.36669535671084574
IGe2O4,0.7754329922600718
IHf2O4,0.6458607682871929
IHg2O4,0.20275973033639394
IHo2O4,0.35129732562489924
IIn2O4,0.2426046577280916
IIr2O4,0.33364140270495124
ILa2O4,0.4358320085641889
ILu2O4,0.3220579396198797
IMn2O4,0.2399943328918006
IMo2O4,0.5098470703160558
IN2O4,1.6496959515786727
INb2O4,0.5901457655134248
INd2O4,0.4132461526330271
INi2O4,0.331699185777798
IOs2O4,0.48173245910386164
IP2O4,1.334551176727862
IPb2O4,2.8307783775439317
IPd2O4,0.26751875266177905
IPr2O4,0.4337812806322452
IPt2O4,0.2843473908445695
IRe2O4,0.7337343012174387
IRh2O4,0.2275976160819413
IRu2O4,0.38061901633078854
ISb2O4,1.3785419003877122
ISc2O4,0.30346735002776626
ISe2O4,0.5916690867951102
ISi2O4,1.4380221871487855
ISm2O4,0.35669463862853146
ISn2O4,0.5613308664831624
ITb2O4,0.3538472381149953
ITc2O4,0.5396407561341885
ITe2O4,0.490729772802009
ITi2O4,0.6691425916387068
ITl2O4,0.09844721404710466
ITm2O4,0.3127787427446078
IV2O4,0.3818068107736021
IW2O4,0.9371334941833229
IY2O4,0.3499817487472363
IYb2O4,error
IZn2O4,0.25297563496084674
IZr2O4,0.5578766523067875
InAg2O4,0.25331571051102575
InAl2O4,0.23186804290105556
InAs2O4,0.43878789761648296
InAu2O4,0.28300231722380076
InB2O4,1.5896234633241741
InBi2O4,0.17456957496587044
InBr2O4,0.7686614293467642
InC2O4,2.04241934115597
InCe2O4,0.27863465509730023
InCl2O4,1.104441721396853
InCo2O4,0.10100634953225107
InCr2O4,0.12293526597138626
InCu2O4,0.15387077177937147
InDy2O4,0.0964139386661289
InEr2O4,0.10822724066668421
InEu2O4,0.04027942894585124
InFe2O4,0.10824899402508059
InGa2O4,0.15680910642293888
InGd2O4,0.11071863226330692
InGe2O4,0.4113313258680664
InHf2O4,0.5544861185485637
InHo2O4,0.08792158055642219
InI2O4,0.5729115649425554
InIn2O4,0.03855360293511634
InIr2O4,0.35190866993922665
InLa2O4,0.17603468936732458
InLu2O4,0.07588867051898429
InMn2O4,0.0364395125462007
InMo2O4,0.4854954141278238
InN2O4,1.8283258909884932
InNb2O4,0.32206563695644697
InNd2O4,0.14275789431699692
InNi2O4,0.32283772868019334
InOs2O4,0.5338484610325969
InP2O4,1.1063811978119684
InPb2O4,0.1562996219245294
InPd2O4,0.23718752506569363
InPr2O4,0.1494234962046459
InPt2O4,0.5620971616330603
InRe2O4,0.43244945907634147
InRh2O4,0.1100247525969289
InRu2O4,0.30810236595473395
InS2O4,1.2563055494640452
InSb2O4,0.35811178178999015
InSc2O4,0.06788155393812545
InSe2O4,0.598809544308402
InSi2O4,1.036158784202864
InSm2O4,0.1374038718085595
InSn2O4,0.2608076971327913
InSr2O4,0.20702984180779183
InTa2O4,0.5345764163213378
InTb2O4,0.0876396976054572
InTc2O4,0.32535035978075744
InTe2O4,0.4389640502527783
InTi2O4,0.2822724340213352
InTl2O4,0.11737764862843658
InTm2O4,0.09501078800582174
InV2O4,0.08300842962403632
InW2O4,1.0180980330013831
InY2O4,0.08443433985071547
InYb2O4,error
InZn2O4,0.1881289459319042
InZr2O4,0.4378003301839577
IrAg2O4,0.21602251650092885
IrAl2O4,0.4144505592235532
IrAs2O4,0.7056975214516088
IrAu2O4,0.482783684664299
IrB2O4,1.4266078250077454
IrBa2O4,0.4472705293020649
IrBe2O4,0.4565778482010252
IrBi2O4,0.517222955535737
IrBr2O4,0.40481476025589647
IrC2O4,2.155037880669627
IrCa2O4,0.35066575091117524
IrCd2O4,0.29405660870589223
IrCe2O4,0.9718914711343603
IrCl2O4,0.5411075222470085
IrCo2O4,0.23763436487774126
IrCr2O4,0.3347467205821042
IrCs2O4,0.06572566251274736
IrCu2O4,0.28944294705590146
IrDy2O4,0.7177262084060496
IrEr2O4,0.6911658151314679
IrEu2O4,0.44267811626298403
IrFe2O4,0.38897508644822576
IrGa2O4,0.39604831709812327
IrGd2O4,0.7008131506782131
IrGe2O4,0.7775836262986333
IrH2O4,0.9796808471211396
IrHf2O4,1.148323761164976
IrHg2O4,0.3318894814899487
IrHo2O4,0.6934547072595842
IrI2O4,0.45228561623040786
IrIn2O4,0.4873416927218672
IrIr2O4,0.4461260640228737
IrK2O4,0.14103536392389415
IrLa2O4,0.7592062243878557
IrLi2O4,0.10164444385059035
IrLu2O4,0.6946464253808005
IrMg2O4,0.2967089947669779
IrMn2O4,0.26791110739708035
IrMo2O4,0.7873013976647174
IrN2O4,1.7374833430873782
IrNa2O4,0.12078234466484261
IrNb2O4,0.9833227992397191
IrNd2O4,0.7342259985791744
IrNi2O4,0.44164858177429966
IrOs2O4,0.5602633395079453
IrP2O4,1.3538965523910438
IrPb2O4,0.3930915506821169
IrPd2O4,0.4025063643840925
IrPr2O4,0.7561374246121
IrPt2O4,0.608651630282294
IrRb2O4,0.0018972872087790194
IrRe2O4,0.799638609449806
IrRh2O4,0.22422269298576136
IrRu2O4,0.43894002562961276
IrSb2O4,0.7520510972014263
IrSc2O4,0.5518285617402299
IrSe2O4,0.7006174627080375
IrSi2O4,1.3507477055177919
IrSm2O4,0.7134161775890409
IrSn2O4,0.7570461098654855
IrSr2O4,0.419228922313053
IrTa2O4,1.1920035325767042
IrTb2O4,0.7016734031662395
IrTc2O4,0.5809393480098999
IrTe2O4,0.7154782550259693
IrTi2O4,0.7743011742835453
IrTl2O4,0.24672486188289877
IrTm2O4,0.7123624373450239
IrV2O4,0.43192170548050335
IrW2O4,1.3832875959151938
IrY2O4,0.6944687392136837
IrYb2O4,error
IrZn2O4,0.3301164300919961
IrZr2O4,1.0721929968185648
KAs2O4,0.4413078978734415
KAu2O4,0.18579181427517533
KBi2O4,0.04891201620281649
KC2O4,2.4750790726706526
KCe2O4,0.0
KCo2O4,0.2672878317655032
KCr2O4,0.16536471825382204
KCu2O4,0.2835949604205963
KDy2O4,0.12210300083185555
KEr2O4,0.12112321111423352
KEu2O4,0.07881754557192444
KFe2O4,0.20693683173927546
KGa2O4,0.24064664322211726
KGd2O4,0.11240101866835772
KGe2O4,0.45435866102214995
KHf2O4,0.13866020161133896
KIr2O4,0.11556602417274142
KLa2O4,0.06530358378534462
KMn2O4,0.16289439791394056
KMo2O4,0.3995075135736288
KNb2O4,0.21869713627328746
KNd2O4,0.1010837202990178
KNi2O4,0.5570006099297453
KOs2O4,0.36586168751681303
KPb2O4,0.0
KPd2O4,0.06952009791639391
KPr2O4,0.14126878706855273
KPt2O4,0.06851886276598407
KRe2O4,0.5253174108563439
KRh2O4,0.0
KRu2O4,0.1309171826829454
KS2O4,1.4538704278229106
KSb2O4,0.26108369377498164
KSe2O4,0.5124350031564484
KSi2O4,0.7725721939260097
KSm2O4,0.0900668075508193
KSn2O4,0.15278691312314585
KTa2O4,0.39361439642799034
KTb2O4,0.13701108557261055
KTc2O4,0.3094561275151859
KTe2O4,0.25925044553379273
KTi2O4,0.16726416182564208
KV2O4,0.1704592536626608
KW2O4,0.8095754850749524
KY2O4,0.11587007435753272
KYb2O4,error
KZn2O4,0.45951684100638346
KZr2O4,0.1008275374087706
LaAg2O4,0.28142044758496887
LaAl2O4,0.48088904119663756
LaAs2O4,0.6486468945622139
LaAu2O4,0.4231365516431831
LaB2O4,2.011416589142457
LaBa2O4,0.13899221167392994
LaBe2O4,0.7971942680828024
LaBi2O4,0.23497206091644873
LaBr2O4,0.8589699387437975
LaC2O4,2.3458402903203117
LaCa2O4,0.11973434719955733
LaCd2O4,0.13372930416300832
LaCe2O4,0.08445518100191052
LaCo2O4,0.20065481797899665
LaCr2O4,0.3340103133791006
LaCu2O4,0.3315831263233271
LaDy2O4,0.03213202955983796
LaEr2O4,0.05217824032111906
LaEu2O4,0.008565246333958498
LaFe2O4,0.26299267522705083
LaGa2O4,0.4162655168688989
LaGd2O4,0.0
LaGe2O4,0.5990846279902398
LaHf2O4,0.31350963111024654
LaHg2O4,0.2051752480824307
LaHo2O4,0.0024572880686388743
LaI2O4,0.7040556510496803
LaIn2O4,0.1643325445318391
LaIr2O4,0.3770240251995931
LaLa2O4,0.013620634257577535
LaLu2O4,0.009655695731439096
LaMg2O4,0.18656258806626624
LaMn2O4,0.28702812922415255
LaMo2O4,0.6502008635097791
LaNb2O4,0.36270524576990226
LaNd2O4,0.007842236294809624
LaNi2O4,0.40924822855084564
LaOs2O4,0.736022135863684
LaPb2O4,0.14005715782354766
LaPd2O4,0.3854154056559107
LaPr2O4,0.0
LaPt2O4,0.6737215696177135
LaRe2O4,0.6202620479461896
LaRh2O4,0.17844028719442218
LaRu2O4,0.35095432033959817
LaS2O4,1.4698165683371736
LaSb2O4,0.5417627927550326
LaSc2O4,0.04815344933471977
LaSe2O4,0.733822459161658
LaSi2O4,1.0592460967643937
LaSm2O4,0.02286834500966428
LaSn2O4,0.4520865469415396
LaSr2O4,0.1054172435100833
LaTa2O4,0.5732720129123212
LaTb2O4,0.0
LaTc2O4,0.49771958668894456
LaTe2O4,0.5525325206410283
LaTi2O4,0.22551381533791748
LaTl2O4,0.15164011372100727
LaTm2O4,0.07639881034402052
LaV2O4,0.21535514102665942
LaW2O4,1.334009425591998
LaY2O4,0.0
LaYb2O4,error
LaZn2O4,0.2490903883418616
LaZr2O4,0.30065542320693694
LiAs2O4,0.3338752919336869
LiAu2O4,0.16342448285337507
LiBi2O4,0.11698091090418128
LiC2O4,1.7325645117401045
LiCe2O4,0.17242739690961173
LiCl2O4,0.1382578535326422
LiCo2O4,0.04734879667656333
LiCr2O4,0.020546370698764527
LiCu2O4,0.12143299739180868
LiDy2O4,0.20893617271074838
LiEr2O4,0.19343330478714993
LiEu2O4,0.18638572763320127
LiFe2O4,0.09907433594891923
LiGa2O4,0.14892788136143675
LiGd2O4,0.21267411439557904
LiGe2O4,0.14150328430651093
LiHf2O4,0.05610429219228763
LiIr2O4,0.1443308512329633
LiLa2O4,0.23190389994171756
LiMn2O4,0.033639636159693787
LiMo2O4,0.2758579132518859
LiNb2O4,0.10550815403288816
LiNd2O4,0.2683270274218268
LiNi2O4,0.32275731141211583
LiOs2O4,0.20824830975890585
LiP2O4,0.44319365789454856
LiPb2O4,0.018983581683986728
LiPd2O4,0.014641133382397697
LiPr2O4,0.29533284274333926
LiPt2O4,0.09144182048577676
LiRe2O4,0.23379333788647472
LiRh2O4,0.0
LiRu2O4,0.07564384863870544
LiS2O4,1.048884617303707
LiSb2O4,0.2894641109862226
LiSe2O4,0.44891458809263085
LiSi2O4,0.33440651762744444
LiSm2O4,0.22175657617899347
LiSn2O4,0.12176056301077232
LiTa2O4,0.15578213840510458
LiTb2O4,0.2536934552373733
LiTc2O4,0.15481690994076658
LiTe2O4,0.3116786288845539
LiTi2O4,0.00937582783529578
LiV2O4,0.021762175446102816
LiW2O4,0.6934896076052253
LiY2O4,0.1949718386034336
LiYb2O4,error
LiZn2O4,0.3361382034639515
LiZr2O4,0.04758554843170337
LuAg2O4,0.3379315298779595
LuAl2O4,0.35906301488466585
LuAs2O4,0.5988602252365034
LuAu2O4,0.3592570213521249
LuB2O4,1.8356172752538757
LuBi2O4,0.2867193320124901