Formula,Ehull
AgAg2O4,0.20388467630852647
AgAl2O4,0.10426249182024439
AgAs2O4,0.30083900606037606
AgAu2O4,0.16375068552300664
AgB2O4,1.2463176833861258
AgBi2O4,0.09725164892755522
AgCe2O4,0.37188942721976925
AgCl2O4,1.122829790330392
AgCo2O4,0.10556697484193123
AgCr2O4,0.04360631878586574
AgCu2O4,0.11334020504962261
AgDy2O4,0.16564572428358115
AgEr2O4,0.15753491757629146
AgEu2O4,0.16255520048098582
AgFe2O4,0.11781604353662711
AgGa2O4,0.09348376049368046
AgGd2O4,0.1881531403662926
AgGe2O4,0.3771286205326998
AgHf2O4,0.4397075497387881
AgHo2O4,0.1681091227676701
AgI2O4,0.3823484983026453
AgIn2O4,0.07226327566509205
AgIr2O4,0.23625428566572548
AgLa2O4,0.2113586707200934
AgLu2O4,0.14146824086597487
AgMn2O4,0.057181726678079414
AgMo2O4,0.22594542474973078
AgN2O4,1.0232987077318292
AgNb2O4,0.35003363650327035
AgNd2O4,0.22697821425918452
AgNi2O4,0.38298702057313694
AgOs2O4,0.3120466552671912
AgP2O4,0.9740597387832608
AgPb2O4,0.030911403920460323
AgPd2O4,0.04577684892376599
AgPr2O4,0.2411588465610306
AgPt2O4,0.15269965415276765
AgRe2O4,0.40244379094164273
AgRh2O4,0.09001646170467659
AgRu2O4,0.25029465420118235
AgS2O4,1.0482308351631584
AgSb2O4,0.3159001376128545
AgSc2O4,0.09797217190778795
AgSe2O4,0.41336401237422216
AgSi2O4,0.8349452921303033
AgSm2O4,0.18484970754668595
AgSn2O4,0.2597104438438338
AgSr2O4,0.4424406361414004
AgTa2O4,0.4971822042196603
AgTb2O4,0.19309460688927427
AgTc2O4,0.3538613066596632
AgTe2O4,0.34914512032392686
AgTi2O4,0.2724463450676291
AgTl2O4,0.08874288483168868
AgTm2O4,0.1444512188122511
AgV2O4,0.1264233944178219
AgW2O4,0.6681708388207017
AgY2O4,0.1547403463978334
AgYb2O4,error
AgZn2O4,0.3036500275466718
AgZr2O4,0.40147074790016646
AlAg2O4,0.29371636790445077
AlAs2O4,0.559304979016443
AlAu2O4,0.35265968761136524
AlB2O4,1.5771904807009305
AlBi2O4,0.3280610470514054
AlC2O4,1.889698698814538
AlCe2O4,0.1873122232223281
AlCl2O4,0.4278932560942881
AlCo2O4,0.12715984700828997
AlCr2O4,0.16998998243586438
AlCu2O4,0.1547802649058747
AlDy2O4,0.22928972506056589
AlEr2O4,0.21247678501055223
AlEu2O4,0.20573068109363035
AlFe2O4,0.13139231446217892
AlGa2O4,0.32021220592655997
AlGd2O4,0.2051671275928566
AlGe2O4,0.5026884149882287
AlHf2O4,0.34030143177345273
AlHo2O4,0.21274007240523396
AlIn2O4,0.22738801998219582
AlIr2O4,0.5292301493426441
AlLa2O4,0.295226793340988
AlLu2O4,0.2578843339462633
AlMn2O4,0.09893618397473514
AlMo2O4,0.5939061617583947
AlNb2O4,0.19581512189535033
AlNd2O4,0.23983376486348273
AlNi2O4,0.30775720022124986
AlOs2O4,0.564424250069341
AlP2O4,1.1513436962803762
AlPb2O4,0.26428879488906354
AlPd2O4,0.34934526508744845
AlPr2O4,0.2160740555153664
AlPt2O4,0.6315535760666613
AlRe2O4,0.5502605134503078
AlRh2O4,0.18430091157684458
AlRu2O4,0.3598365892330131
AlS2O4,1.285798173223231
AlSb2O4,0.4683980970442869
AlSc2O4,0.05498583694665271
AlSe2O4,0.72191959025323
AlSi2O4,0.9875264930963734
AlSm2O4,0.21129133591348026
AlSn2O4,0.3893914700194854
AlTa2O4,0.44286211366028105
AlTb2O4,0.1861419454967761
AlTc2O4,0.401898143378026
AlTe2O4,0.5395590177827172
AlTi2O4,0.06594731659150277
AlTl2O4,0.21618059814688273
AlTm2O4,0.2609963481505835
AlV2O4,0.1123590102303842
AlW2O4,1.2376352518197722
AlY2O4,0.17968262366422572
AlYb2O4,error
AlZn2O4,0.21899929895550585
AlZr2O4,0.22080534403640684
AsAg2O4,0.07137300216522213
AsAl2O4,0.3733764180994923
AsAs2O4,0.5676174929936275
AsAu2O4,0.2999357336899484
AsB2O4,1.5711096710168047
AsBa2O4,0.34151882874764894
AsBe2O4,0.2752671001384668
AsBi2O4,0.27272129645086984
AsBr2O4,0.5821277599551733
AsC2O4,1.942417397125067
AsCa2O4,0.18671797967705306
AsCd2O4,0.06844480097211658
AsCe2O4,0.6206878540959986
AsCl2O4,0.0
AsCo2O4,0.08364103537058742
AsCr2O4,0.17601527518027815
AsCu2O4,0.06549342958261217
AsDy2O4,0.3569292830628896
AsEr2O4,0.33984858800513873
AsEu2O4,0.22093826057901467
AsFe2O4,0.18971440643813775
AsGa2O4,0.31872093797422085
AsGd2O4,0.3658369521787517
AsGe2O4,0.5584204574299161
AsHf2O4,0.8483513827050153
AsHg2O4,0.1026307913490232
AsHo2O4,0.352139408986349
AsI2O4,0.39114467778688855
AsIn2O4,0.21300862999060666
AsIr2O4,0.28312734697366704
AsLa2O4,0.4758270390751278
AsLu2O4,0.3226057908092983
AsMg2O4,0.11253016353789747
AsMn2O4,0.05134978532261947
AsMo2O4,0.529890604942918
AsN2O4,1.6402590886829707
AsNb2O4,0.5927104688910925
AsNd2O4,0.42295856300208623
AsNi2O4,0.2336053580493651
AsOs2O4,0.4878585086901266
AsP2O4,1.0676002626339
AsPb2O4,0.13014833752870025
AsPd2O4,0.24055173746124847
AsPr2O4,0.4631505660856323
AsPt2O4,0.5097232969022798
AsRe2O4,0.5722494849827608
AsRh2O4,0.15020475747455642
AsRu2O4,0.3459553596856617
AsS2O4,1.1926385847945422
AsSb2O4,1.23297678932214
AsSc2O4,0.27207197560493057
AsSe2O4,0.49284122981128053
AsSi2O4,1.275170416494955
AsSm2O4,0.39683930379485854
AsSn2O4,0.44472806161730283
AsSr2O4,0.27252548947842925
AsTa2O4,0.8647579094006552
AsTb2O4,0.3752506104526052
AsTc2O4,0.44132122106026994
AsTe2O4,0.3472560906975515
AsTi2O4,0.5295867495990807
AsTl2O4,0.10424355093515203
AsTm2O4,0.34262624874197734
AsV2O4,0.22446289274882414
AsW2O4,1.1395524210881147
AsY2O4,0.33061347623564963
AsYb2O4,error
AsZn2O4,0.1546374162297539
AsZr2O4,0.7918774830336428
AuAg2O4,0.36493511286032865
AuAl2O4,0.18254022823068095
AuAs2O4,0.4314540430382401
AuAu2O4,0.2617754178881846
AuB2O4,1.2122022569082294
AuBi2O4,0.2724721958560332
AuBr2O4,0.6527276179447119
AuC2O4,2.204709020922004
AuCa2O4,0.40670417186384267
AuCd2O4,0.28590753875190833
AuCe2O4,0.5032897567192913
AuCl2O4,1.1842952997409428
AuCo2O4,0.14493555472530506
AuCr2O4,0.13116279556471078
AuCu2O4,0.18993933132779173
AuDy2O4,0.25221857368858025
AuEr2O4,0.25152031394728613
AuEu2O4,0.3006147843410334
AuFe2O4,0.16594329716209
AuGa2O4,0.16095346003847233
AuGd2O4,0.3372279143310539
AuGe2O4,0.581436371829616
AuHf2O4,0.6268943446455779
AuHg2O4,0.31722379416862845
AuHo2O4,0.24941820380927826
AuI2O4,0.491994704374521
AuIn2O4,0.15084594465365253
AuIr2O4,0.3167202692590383
AuLa2O4,0.3927531876262558
AuLu2O4,0.21830164676629948
AuMn2O4,0.11986946158343414
AuMo2O4,0.3849834240625114
AuN2O4,1.788196047322777
AuNb2O4,0.5040817142762668
AuNd2O4,0.38133384186274544
AuNi2O4,0.37829021186688383
AuOs2O4,0.4366958201326119
AuP2O4,1.098535891664131
AuPb2O4,0.13182475246481395
AuPd2O4,0.16961279220765313
AuPr2O4,0.3286254931877295
AuPt2O4,0.32019645080400405
AuRe2O4,0.5776078628341557
AuRh2O4,0.2117408320780756
AuRu2O4,0.3960130099404049
AuS2O4,1.1988486487959316
AuSb2O4,0.5078642563963838
AuSc2O4,0.18828526481473595
AuSe2O4,0.5760348715078605
AuSi2O4,1.0692641296448944
AuSm2O4,0.3445368075465689
AuSn2O4,0.4616664938150974
AuSr2O4,0.49227629419202046
AuTa2O4,0.6301283888144305
AuTb2O4,0.2672762853548294
AuTc2O4,0.4856627864500487
AuTe2O4,0.49417458334304865
AuTi2O4,0.481966531482362
AuTl2O4,0.17694903985982435
AuTm2O4,0.23938736607565403
AuV2O4,0.29532644592922264
AuW2O4,0.8721659891229967
AuY2O4,0.24049723754490415
AuYb2O4,error
AuZn2O4,0.28720811749664055
AuZr2O4,0.5815807253994514
BAg2O4,0.3167170546495628
BAl2O4,0.5171369468286535
BAs2O4,0.544421843993911
BAu2O4,0.46254872172438244
BB2O4,1.966042894796555
BBi2O4,0.40499566923762664
BBr2O4,1.033823855340649
BC2O4,1.8421869461663238
BCe2O4,0.5657078180443493
BCo2O4,0.34256887060349417
BCr2O4,0.38820668037887707
BCu2O4,0.258461745999079
BDy2O4,0.6213591495541504
BEr2O4,0.5844165302608806
BEu2O4,0.4747029415871573
BFe2O4,0.2663665442658312
BGa2O4,0.43999523653745065
BGd2O4,0.6547000821371558
BGe2O4,0.4535099270359524
BHf2O4,0.5892462334820916
BHo2O4,0.6079795874985976
BI2O4,0.7112394156016792
BIn2O4,0.41862149110732094
BIr2O4,0.5769144090713194
BLa2O4,0.7267135290945212
BLu2O4,0.656491446688003
BMn2O4,0.28667709795100915
BMo2O4,0.568578934037002
BNb2O4,0.1166567418414104
BNd2O4,0.6891864612406824
BNi2O4,0.341922341802964
BOs2O4,0.5824339757530748
BP2O4,0.8641217221954083
BPb2O4,0.45432392426174495
BPd2O4,0.3652375845572218
BPr2O4,0.6621971203056107
BPt2O4,0.5385938592303114
BRe2O4,0.3755232252673544
BRh2O4,0.22927905135947935
BRu2O4,0.36720808186533827
BS2O4,1.5367126994388967
BSb2O4,0.473058748740935
BSc2O4,0.37532676310059543
BSe2O4,0.7795503871707137
BSi2O4,0.9210942480793936
BSm2O4,0.6070382331831876
BSn2O4,0.4268697077232666
BSr2O4,0.6899130545140952
BTa2O4,0.4653920350031431
BTb2O4,0.592681662652284
BTc2O4,0.28427607274525535
BTe2O4,0.4590488175906273
BTi2O4,0.17804644683796234
BTl2O4,0.4356280957855825
BTm2O4,0.5926872346831269
BV2O4,0.26657500433922365
BW2O4,1.252012964437224
BY2O4,0.6071092485950409
BYb2O4,error
BZn2O4,0.33430568225421986
BZr2O4,0.5069387333988722
BaAg2O4,0.2114652258584151
BaAl2O4,0.5371287481407929
BaAs2O4,0.5274627740703339
BaAu2O4,0.37142069169467007
BaBi2O4,0.0621442629560347
BaBr2O4,0.7904514326919725
BaC2O4,2.6177814990372728
BaCe2O4,1.7374321517101325
BaCo2O4,0.2927439478447935
BaCr2O4,0.1880909013298897
BaCu2O4,0.31341662335578135
BaDy2O4,0.0075211597143098885
BaEr2O4,0.010763848449350633
BaEu2O4,0.008829487875395614
BaFe2O4,0.21335312441569432
BaGa2O4,0.388817537535032
BaGd2O4,0.002620542866495157
BaGe2O4,0.55737196559285
BaHf2O4,0.3293717826943787
BaHo2O4,0.00833611931895728
BaIn2O4,0.032712679596564875
BaIr2O4,0.18479918126047323
BaLa2O4,0.0
BaLu2O4,0.019554584192801094
BaMn2O4,0.22206437503418464
BaMo2O4,0.6211352000064112
BaNb2O4,0.381003226564518
BaNd2O4,0.0
BaNi2O4,0.5379165353146513
BaOs2O4,0.4740073806542897
BaPb2O4,0.10366079442140386
BaPd2O4,0.16710687336769148
BaPr2O4,0.010140420733488753
BaPt2O4,0.2970725139951398
BaRe2O4,0.5520691782292753
BaRh2O4,0.08567971942647556
BaRu2O4,0.26160305252540894
BaSb2O4,0.3095934951831323
BaSc2O4,0.09231643553470015
BaSe2O4,0.6939672836462796
BaSi2O4,0.9837294958128471
BaSm2O4,0.0
BaSn2O4,0.2780216322995326
BaSr2O4,0.2533132477015281
BaTa2O4,0.513266663332427
BaTb2O4,0.012292296443109585
BaTc2O4,0.4277279577982025
BaTe2O4,0.39049803385508675
BaTi2O4,0.23971379026623119
BaTl2O4,0.04216408033741903
BaTm2O4,0.011701344469843278
BaV2O4,0.24417241124322953
BaW2O4,1.085960304649066
BaY2O4,0.005648744951848528
BaYb2O4,error
BaZn2O4,0.38643061394648726
BaZr2O4,0.25763042850971907
BeAg2O4,0.38570765854781364
BeAl2O4,0.06167609374474203
BeAs2O4,0.5427426665646262
BeAu2O4,0.34057919636419864
BeB2O4,1.210114337305825
BeBi2O4,0.4094281312604586
BeBr2O4,1.0240202855921647
BeC2O4,1.6197669711638154
BeCe2O4,0.41197056043955804
BeCl2O4,1.3708888410353115
BeCo2O4,0.10196830613682373
BeCr2O4,0.11189111825351272
BeCu2O4,0.1799831037791142
BeDy2O4,0.4910941541922469
BeEr2O4,0.44604819920707595
BeEu2O4,0.4416425762886167
BeFe2O4,0.16595037492190112
BeGa2O4,0.11543971968716349
BeGd2O4,0.5246951993329407
BeGe2O4,0.42273250367710435
BeHf2O4,0.3199397850847916
BeHo2O4,0.4725171321946364
BeI2O4,0.6804003856877276
BeIn2O4,0.26180619882568745
BeIr2O4,0.43502939415560427
BeLa2O4,0.6115361712373213
BeLu2O4,0.41918664802764294
BeMn2O4,0.16832373974689308
BeMo2O4,0.4602755016895417
BeNb2O4,0.14424902656438476
BeNd2O4,0.6057260442657855
BeNi2O4,0.4014107362811439
BeOs2O4,0.385204618315405
BeP2O4,1.0328103904782964
BePb2O4,0.36556361628813594
BePd2O4,0.20198841923260158
BePr2O4,0.5870906554096624
BePt2O4,0.3580671406360487
BeRe2O4,0.3349024226958477
BeRh2O4,0.12377497769415768
BeRu2O4,0.23806907272374023
BeS2O4,1.4364248107860051
BeSb2O4,0.5096565869738043
BeSc2O4,0.2803111730271972
BeSe2O4,0.7199926700038493
BeSi2O4,0.8458727911651938
BeSm2O4,0.5673383034953483
BeSn2O4,0.41195225985274675
BeSr2O4,0.599784715424101
BeTa2O4,0.31255346113699467
BeTb2O4,0.5234508946058991
BeTc2O4,0.22042335726519102
BeTe2O4,0.5056980552312096
BeTi2O4,0.1240147135306362
BeTl2O4,0.3267849014659774
BeTm2O4,0.43782805658818624
BeV2O4,0.15328784188605926
BeW2O4,1.0623801393444294
BeY2O4,0.4633624101694327
BeYb2O4,error
BeZn2O4,0.34626312597972486
BeZr2O4,0.23395758867408567
BiAg2O4,0.15653392628128593
BiAl2O4,0.48336582750621293
BiAs2O4,0.44381394858096446
BiAu2O4,0.289671874991118
BiB2O4,1.806672290336353
BiBa2O4,0.12721247825485715
BiBe2O4,0.46972926108853486
BiBi2O4,0.14852217937115242
BiBr2O4,0.7625433206408063
BiC2O4,2.192947929556298
BiCa2O4,0.019396250426938266
BiCd2O4,0.03148231196328766
BiCe2O4,0.0
BiCl2O4,1.0818170650968102
BiCo2O4,0.1119257085384131
BiCr2O4,0.12619220769403405
BiCu2O4,0.14055685670916862
BiDy2O4,0.174633589909039
BiEr2O4,0.19297162543470847
BiEu2O4,0.0
BiFe2O4,0.13930397842632836
BiGa2O4,0.28835959933008315
BiGd2O4,0.1544483392660343
BiGe2O4,0.45907096508392353
BiHf2O4,0.7576216221903191
BiHg2O4,0.11949714887227314
BiHo2O4,0.17414737946168923
BiI2O4,0.5810493215117036
BiIn2O4,0.1251663089416466
BiIr2O4,0.26487744799825474
BiLa2O4,0.1958488756287613
BiLu2O4,0.1571849991380434
BiMg2O4,0.02478044190560169
BiMn2O4,0.04878918223085549
BiMo2O4,0.5222512947369635
BiN2O4,1.8773467812875095
BiNb2O4,0.44649736314018096
BiNd2O4,0.18387332599874373
BiNi2O4,0.2867725785502122
BiOs2O4,0.4444774027391105
BiP2O4,1.1897885060843345
BiPb2O4,0.12156792494027346
BiPd2O4,0.2649696490073268
BiPr2O4,0.18309522755689311
BiPt2O4,0.48349217043157644
BiRe2O4,0.4229885424976816
BiRh2O4,0.08954259787398566
BiRu2O4,0.24060562620875459
BiS2O4,1.2591092234397676
BiSb2O4,0.3643759732446785
BiSc2O4,0.18423060361561294
BiSe2O4,0.6298124121614777
BiSi2O4,1.2445968635577103
BiSm2O4,0.17684823285579743
BiSn2O4,0.3465211742750247
BiSr2O4,0.06831011850847712
BiTa2O4,0.6431195065754931
BiTb2O4,0.16333872312637965
BiTc2O4,0.3128439230898161
BiTe2O4,0.4434872687083944
BiTi2O4,0.43956694172961974
BiTl2O4,0.11942037574897402
BiTm2O4,0.18848212173778744
BiV2O4,0.11005336445403646
BiW2O4,1.095710553561723
BiY2O4,0.16644360732820385
BiYb2O4,error
BiZn2O4,0.1286683940279909
BiZr2O4,0.6430704095194582
BrAg2O4,0.39143207867980534
BrAs2O4,0.6198432515135366
BrAu2O4,0.6557118865005975
BrBi2O4,0.4646016142275151
BrC2O4,2.6924200486627043
BrCa2O4,0.4300103980144403
BrCd2O4,0.4478229103618019
BrCe2O4,0.4339467446406964
BrCl2O4,0.7507571731649101
BrCo2O4,0.37952563151904073
BrCr2O4,0.43965537662649457
BrCu2O4,0.39751151726499145
BrDy2O4,0.44738323274864467
BrEr2O4,0.46375941643341356
BrEu2O4,0.365657702291867
BrFe2O4,0.46350886713875106
BrGa2O4,0.5195883897257723
BrGd2O4,0.47338995533097794
BrGe2O4,0.8727475998365728
BrHf2O4,0.5769096628128221
BrHg2O4,0.43121469996559414
BrHo2O4,0.4717851853376649
BrIn2O4,0.3759417920293764
BrIr2O4,0.4044728762250793
BrLa2O4,0.5670494529375159
BrLu2O4,0.43163831883755766
BrMn2O4,0.39934392596850365
BrMo2O4,0.6343545415290963
BrN2O4,2.1358627209876775
BrNb2O4,0.5782325652369282
BrNd2O4,0.5664213604154451
BrNi2O4,0.6920993976221199
BrOs2O4,0.45875383646924206
BrP2O4,1.331507058939133
BrPb2O4,0.31589543873861636
BrPd2O4,0.30682508138772935
BrPr2O4,0.5509986529512485
BrPt2O4,0.3694754385808725
BrRe2O4,0.7914696061216437
BrRh2O4,0.35255249103554753
BrRu2O4,0.37912388235394445
BrSb2O4,0.7871995252036639
BrSc2O4,0.4496977379855922
BrSe2O4,0.11088934607593082
BrSi2O4,1.412971399153001
BrSm2O4,0.49373368225372527
BrSn2O4,0.6107017948053812
BrTa2O4,0.7745672337586385
BrTb2O4,0.45457525484897143
BrTc2O4,0.5744629101049927
BrTe2O4,0.514438107813386
BrTi2O4,0.6515038928272725
BrTl2O4,0.4033767045713028
BrTm2O4,0.4328689660456293
BrV2O4,0.4425734164132811
BrW2O4,0.961600901378576
BrY2O4,0.46436797621449877
BrYb2O4,error
BrZn2O4,0.4536170887147457
BrZr2O4,0.5526821400054089
CAg2O4,0.4192903850172396
CAl2O4,1.080803020518709
CAs2O4,0.6519054033912175
CAu2O4,0.6181035338948409
CB2O4,2.445644834956753
CBa2O4,0.846419168077154
CBe2O4,0.6599230091174562
CBi2O4,0.5470065427097586
CBr2O4,0.9685985828654138
CC2O4,2.1552560277423938
CCa2O4,0.7196608902978818
CCd2O4,0.5022883494037487
CCe2O4,1.2817227050975273
CCl2O4,1.7872304101186764
CCo2O4,0.4157555725710287
CCr2O4,0.7678828752483211
CCu2O4,0.4133114847106061
CDy2O4,1.4413750319177465
CEr2O4,1.1712316972170767
CEu2O4,0.697404714675681
CFe2O4,0.437333128803183
CGa2O4,0.7561830714796898
CGd2O4,1.2295808731219324
CGe2O4,1.0814874731576625
CHf2O4,1.5544483126829434
CHg2O4,0.4057239405762241
CHo2O4,1.2925731244016143
CI2O4,0.7427205442800027
CIn2O4,0.6874798483765421
CIr2O4,1.0200868804987264
CLa2O4,1.2831184823300008
CLu2O4,1.2947182995672124
CMg2O4,0.5538510129195684
CMn2O4,0.5196516216318257
CMo2O4,1.0537870598556234
CN2O4,2.231099814783203
CNb2O4,1.3633756080917987
CNd2O4,1.2304064513536934
CNi2O4,0.58784526132749
COs2O4,1.26374744416802
CP2O4,0.957335240899905
CPb2O4,0.5145153853678099
CPd2O4,0.46957514433978
CPr2O4,1.2036859270813034
CPt2O4,0.9545155836415553
CRe2O4,1.4106846655415621
CRh2O4,0.36857975044460645
CRu2O4,0.7402571434581402
CS2O4,0.6433535318640295
CSb2O4,0.0
CSc2O4,0.9589879486489714
CSe2O4,0.8207617727003491
CSi2O4,2.0503119680821253
CSm2O4,0.964442348421251
CSn2O4,0.7443569936800509
CSr2O4,0.8791279674860579
CTa2O4,1.485303858862295
CTb2O4,1.251128746964536
CTc2O4,0.5937104599115459
CTe2O4,0.5209561268257703
CTi2O4,1.3225901093536345
CTl2O4,0.5047719843528276
CTm2O4,1.2629505942498342
CV2O4,0.5854187063443348
CW2O4,1.7927443802890286
CY2O4,1.2643212013660792
CYb2O4,error
CZn2O4,0.5023430616122466
CZr2O4,1.4916025724449273
CaAg2O4,0.26425334543555223
CaAl2O4,0.12887748490709772
CaAs2O4,0.3915855711314924
CaAu2O4,0.33626305681428903
CaB2O4,1.694021651265806
CaBi2O4,0.10437624209047236
CaBr2O4,0.6938994057269574
CaC2O4,2.3007343378434593
CaCe2O4,0.0784019199541044
CaCl2O4,1.2107912189831462
CaCo2O4,0.11289969395713673
CaCr2O4,0.041193218691145006
CaCu2O4,0.2651368546674293
CaDy2O4,0.036204634698560056
CaEr2O4,0.028415430631210548
CaEu2O4,0.07371864605042688
CaFe2O4,0.05712677595416782
CaGa2O4,0.08722608431420742
CaGd2O4,0.05233083067507138
CaGe2O4,0.4298588696198893
CaHf2O4,0.282282757537093
CaHo2O4,0.029352809122621615
CaI2O4,0.5756532454007113
CaIn2O4,0.003563319191770553
CaIr2O4,0.18395015321107344
CaLa2O4,0.10252480372306483
CaLu2O4,0.013823886975383282
CaMn2O4,0.1007084936805338
CaMo2O4,0.4503768206004377
CaN2O4,0.16890111409511732
CaNb2O4,0.3121750638368983
CaNd2O4,0.08951076329364493
CaNi2O4,0.37353091974553454
CaOs2O4,0.46543436383986325
CaP2O4,1.2873044664253523
CaPb2O4,0.09558771375944008
CaPd2O4,0.15444352815256313
CaPr2O4,0.10913118696496582
CaPt2O4,0.3750017207048586
CaRe2O4,0.38783753106222285
CaRh2O4,0.02641596410536806
CaRu2O4,0.17870752260666123
CaS2O4,1.4616456988696953
CaSb2O4,0.3202187371188332
CaSc2O4,0.0
CaSe2O4,0.6730578104805645
CaSi2O4,0.7654356477447868
CaSm2O4,0.06725625700323423
CaSn2O4,0.2899336838048301
CaSr2O4,0.3143223398379851
CaTa2O4,0.41270361076689177
CaTb2O4,0.04332259997884602
CaTc2O4,0.30997579830336264
CaTe2O4,0.41022178389669417
CaTi2O4,0.09351016784625621
CaTl2O4,0.01929709088020637
CaTm2O4,0.02054871395665181
CaV2O4,0.042240483183011435
CaW2O4,0.9431531828379072
CaY2O4,0.030406660965104138
CaYb2O4,error
CaZn2O4,0.29411322499648307
CaZr2O4,0.15748190824124464
CdAg2O4,0.19635810661371078
CdAl2O4,0.02670626539571952
CdAs2O4,0.26468436795983763
CdAu2O4,0.13618974052664168
CdB2O4,1.4837341074832278
CdBi2O4,0.08936494994505662
CdBr2O4,0.6782226932992974
CdC2O4,2.144445119316134
CdCe2O4,0.3163338976780441
CdCl2O4,1.1318401263803035
CdCo2O4,0.10348575637496182
CdCr2O4,0.01249913365200861
CdCu2O4,0.159749266897105
CdDy2O4,0.05623010025233377
CdEr2O4,0.040135171567657224
CdEu2O4,0.09123457822744285
CdFe2O4,0.027899952147635076
CdGa2O4,0.004995214464880604
CdGd2O4,0.08164445555677702
CdGe2O4,0.2779968279327676
CdHf2O4,0.5073494885297247
CdHo2O4,0.049047296463903045
CdI2O4,0.4546190988006451
CdIn2O4,0.008520079924278612
CdIr2O4,0.14725458734091657
CdLa2O4,0.13288207081561065
CdLu2O4,0.027168041926664444
CdMn2O4,0.056901116161065524
CdMo2O4,0.3115365914990571
CdN2O4,0.9391227646291904
CdNb2O4,0.23332336276682675
CdNd2O4,0.12248644726425528
CdNi2O4,0.3595584552372397
CdOs2O4,0.34253892361085914
CdP2O4,1.0744142232143945
CdPb2O4,0.06245531341982513
CdPd2O4,0.04502200249015953
CdPr2O4,0.14041632893903522
CdPt2O4,0.292448306215066
CdRe2O4,0.27689567350987687
CdRh2O4,0.004682920016447767
CdRu2O4,0.14659571699059093
CdS2O4,1.1487441683410688
CdSb2O4,0.2420649829077952
CdSc2O4,0.0
CdSe2O4,0.497893083492011
CdSi2O4,0.890289634398659
CdSm2O4,0.09095999425372625
CdSn2O4,0.21090507274383175
CdSr2O4,0.33239984289069735
CdTa2O4,0.41126308773975495
CdTb2O4,0.07023581740324136
CdTc2O4,0.20167495198273766