Formula,Ehull
SeN2O4,1.6991071553572388
SeNa2O4,0.0702397288638732
SeNb2O4,0.6627411182873537
SeNd2O4,0.2274115119211304
SeNi2O4,0.40729001476679016
SeOs2O4,0.45582187978951616
SeP2O4,1.3109948261593196
SePb2O4,0.3891033293508954
SePd2O4,0.42867789398654477
SePr2O4,0.1585055498871455
SePt2O4,0.4625255887511672
SeRb2O4,0.1600451369599991
SeRe2O4,0.8213498301197459
SeRh2O4,0.2205289307849716
SeRu2O4,0.3410503055150027
SeSb2O4,0.0
SeSc2O4,0.42052919279557877
SeSe2O4,0.596767111044449
SeSi2O4,1.4064157734711573
SeSm2O4,0.24292793543257662
SeSn2O4,0.6232526238998206
SeSr2O4,0.5378057356732207
SeTa2O4,0.9198942433559694
SeTb2O4,0.2656356039024468
SeTc2O4,0.561598605277867
SeTe2O4,0.5737282236380636
SeTi2O4,0.6226075148625805
SeTl2O4,0.07987888852562097
SeTm2O4,0.2366885831358143
SeV2O4,0.3363599588472539
SeW2O4,1.0751898793593089
SeY2O4,0.2183607952836253
SeYb2O4,error
SeZn2O4,0.348281142462576
SeZr2O4,0.7125679465976642
SiAg2O4,0.22510871468853377
SiAl2O4,0.5369981179452612
SiAs2O4,0.6302393630928824
SiAu2O4,0.41204208075584514
SiB2O4,1.8235098187402263
SiBa2O4,0.40168806144267855
SiBe2O4,0.30201026816213705
SiBi2O4,0.3331195718002009
SiBr2O4,0.845342103245275
SiC2O4,1.892399757554255
SiCa2O4,0.2141333908676719
SiCd2O4,0.1235653582520504
SiCe2O4,0.3242577163175202
SiCo2O4,0.09634930061079938
SiCr2O4,0.36878004500376527
SiCu2O4,0.2026201589914134
SiDy2O4,0.5705908572491021
SiEr2O4,0.5720071713267716
SiEu2O4,0.2083684311341667
SiFe2O4,0.193566070401614
SiGa2O4,0.5089415211160908
SiGd2O4,0.46259483903655685
SiGe2O4,0.4744573406987751
SiHf2O4,0.7035566417854113
SiHg2O4,0.20249245073846467
SiHo2O4,0.5615571406927096
SiI2O4,0.6293476567397356
SiIn2O4,0.3026476214101699
SiIr2O4,0.7030053828360874
SiLa2O4,0.47590612137528865
SiLu2O4,0.5788780476725295
SiMg2O4,0.07561954505252011
SiMn2O4,0.0899344146800356
SiMo2O4,0.8057359976150176
SiNb2O4,0.423706030541954
SiNd2O4,0.43028574911661455
SiNi2O4,0.24893308649137147
SiOs2O4,0.7756495780280996
SiP2O4,0.9546227716970943
SiPb2O4,0.22232456736141692
SiPd2O4,0.4346627698269705
SiPr2O4,0.41782207746793354
SiPt2O4,0.7466820135394245
SiRe2O4,0.7953482831185603
SiRh2O4,0.26679165319418807
SiRu2O4,0.4732570199851356
SiS2O4,1.2879549163767887
SiSb2O4,0.4448390667053239
SiSc2O4,0.30425264229806714
SiSe2O4,0.6985864148903014
SiSi2O4,1.0868668737867502
SiSm2O4,0.37326967924221766
SiSn2O4,0.31507858932495925
SiSr2O4,0.3384417496427732
SiTa2O4,0.7488637626173382
SiTb2O4,0.5205534077488343
SiTc2O4,0.5120374758510655
SiTe2O4,0.462664281072529
SiTi2O4,0.19159882793552185
SiTl2O4,0.2784164682854282
SiTm2O4,0.6033574870219613
SiV2O4,0.20583187452175888
SiW2O4,1.6748482851527644
SiY2O4,0.5091472994055746
SiYb2O4,error
SiZn2O4,0.1460954144450941
SiZr2O4,0.5383931205869104
SmAg2O4,0.30905588395244177
SmAl2O4,0.402293872563388
SmAs2O4,0.6968163458098138
SmAu2O4,0.3830907516851285
SmB2O4,1.941168017197234
SmBa2O4,0.18560824935617237
SmBe2O4,0.7583320798817859
SmBi2O4,0.27007355883553963
SmBr2O4,0.85423763872633
SmC2O4,2.2517894409968244
SmCa2O4,0.14512543276444578
SmCd2O4,0.15799324936264014
SmCe2O4,0.08304164272288972
SmCl2O4,1.2483088754506433
SmCo2O4,0.19311717639308057
SmCr2O4,0.32049727362284575
SmCu2O4,0.3476830531270423
SmDy2O4,0.08951993160857619
SmEr2O4,0.11261668357670374
SmEu2O4,0.030566053939821813
SmFe2O4,0.23435906795893846
SmGa2O4,0.4354274784171226
SmGd2O4,0.03678135061942456
SmGe2O4,0.6343464525403331
SmHf2O4,0.27601740982123246
SmHg2O4,0.23104643760163324
SmHo2O4,0.05781216785457843
SmI2O4,0.7264302177178061
SmIn2O4,0.20455779984570288
SmIr2O4,0.4448609349940522
SmLa2O4,0.0668778919204307
SmLu2O4,0.06413335905179451
SmMg2O4,0.19051642994649498
SmMn2O4,0.15713638199191582
SmMo2O4,0.6272361755427411
SmNb2O4,0.32833396668966763
SmNd2O4,0.056726575787864775
SmNi2O4,0.40840572858048585
SmOs2O4,0.722953052368374
SmPb2O4,0.16116918226817312
SmPd2O4,0.3215639574045168
SmPr2O4,0.025600248379030077
SmPt2O4,0.7800492741813674
SmRe2O4,0.6001064810145493
SmRh2O4,0.21122627746257638
SmRu2O4,0.389003995233395
SmS2O4,1.4313629781683535
SmSb2O4,0.5757366337781855
SmSc2O4,0.06718156016666477
SmSe2O4,0.769381043621638
SmSi2O4,1.0462459521549485
SmSm2O4,0.08520813903220414
SmSn2O4,0.4705187908734727
SmSr2O4,0.142876965598159
SmTa2O4,0.55913610108996
SmTb2O4,0.042187679173624204
SmTc2O4,0.5193344027165958
SmTe2O4,0.5852215571698185
SmTi2O4,0.1974717049701873
SmTl2O4,0.17409513449022374
SmTm2O4,0.13847712572170856
SmV2O4,0.20280072318436382
SmW2O4,1.3203222960040328
SmY2O4,0.04335823016663731
SmYb2O4,error
SmZn2O4,0.2603527298104762
SmZr2O4,0.2654231203930113
SnAg2O4,0.2782575546079489
SnAl2O4,0.27497779635590547
SnAs2O4,0.46371246671794797
SnAu2O4,0.41069530218067385
SnB2O4,1.5463924984711515
SnBa2O4,0.23326487859943867
SnBe2O4,0.42996083380543926
SnBi2O4,0.23590058945352776
SnBr2O4,0.8660613090407177
SnC2O4,2.049283736987757
SnCa2O4,0.10355134141875855
SnCd2O4,0.1089006251329323
SnCe2O4,0.30427326853115044
SnCl2O4,0.3733193450637726
SnCo2O4,0.14379104468909087
SnCr2O4,0.14745079177053189
SnCu2O4,0.22820988308869072
SnDy2O4,0.16803099940840305
SnEr2O4,0.16282138657236445
SnEu2O4,0.05108151343232059
SnFe2O4,0.24314076930531492
SnGa2O4,0.199613596489165
SnGd2O4,0.1798854829619625
SnGe2O4,0.36806588484590463
SnHf2O4,0.6162783187129346
SnHg2O4,0.19639172574493724
SnHo2O4,0.1612409748441488
SnI2O4,0.648296432757423
SnIn2O4,0.09153629233934257
SnIr2O4,0.4051988161530211
SnLa2O4,0.24062122156631194
SnLu2O4,0.15304727484858827
SnMg2O4,0.050019424488669806
SnMn2O4,0.06490372967545888
SnMo2O4,0.5347016676815279
SnNb2O4,0.3904964663886483
SnNd2O4,0.22207400117678144
SnNi2O4,0.3080124649391456
SnOs2O4,0.5795433079126111
SnP2O4,1.1182949421954618
SnPb2O4,0.20615946983918043
SnPd2O4,0.42643457607287694
SnPr2O4,0.2464226352150014
SnPt2O4,0.5702054370173153
SnRe2O4,0.45552497677268633
SnRh2O4,0.2220868442496977
SnRu2O4,0.3611111189367451
SnS2O4,1.2599689792078639
SnSb2O4,0.34273692496654196
SnSc2O4,0.13669776541137413
SnSe2O4,0.6943098684193254
SnSi2O4,1.0631480232124249
SnSm2O4,0.18927455027271822
SnSn2O4,0.2500448694372457
SnSr2O4,0.1411822732629533
SnTa2O4,0.6163951887533976
SnTb2O4,0.1807361126223901
SnTc2O4,0.35749126645054297
SnTe2O4,0.4522105140765804
SnTi2O4,0.3151384647833755
SnTl2O4,0.1993109590876383
SnTm2O4,0.16110423811817753
SnV2O4,0.11380668308031083
SnW2O4,1.1222772440135502
SnY2O4,0.16166838940065276
SnYb2O4,error
SnZn2O4,0.14557002595639812
SnZr2O4,0.49413123485012633
SrAg2O4,0.21499158759586123
SrAl2O4,0.31099779301131214
SrAs2O4,0.4354946233171946
SrAu2O4,0.3647486761845373
SrB2O4,1.985951414730983
SrBa2O4,0.2964856464303596
SrBe2O4,0.7896801798348401
SrBi2O4,0.08170365255639478
SrBr2O4,0.7638584718097059
SrC2O4,2.498833308963505
SrCa2O4,0.2915876024758832
SrCd2O4,0.24095044696867962
SrCe2O4,0.039297028168815196
SrCl2O4,0.25159371513133344
SrCo2O4,0.1772408997934809
SrCr2O4,0.10193822840914368
SrCu2O4,0.213691941098757
SrDy2O4,0.008429486532684827
SrEr2O4,0.008013984625261372
SrEu2O4,0.031735963957048696
SrFe2O4,0.13094535405986196
SrGa2O4,0.22231230308889227
SrGd2O4,0.00969045007151692
SrGe2O4,0.48361343044590654
SrHf2O4,0.2961623543680023
SrHg2O4,0.25464173906283083
SrHo2O4,0.003330247985023682
SrI2O4,0.5742611712829016
SrIn2O4,0.026412900264547012
SrIr2O4,0.14342160522219416
SrLa2O4,0.03954808524359965
SrLu2O4,0.009928319245092077
SrMg2O4,0.34134144021634416
SrMn2O4,0.13845749703897603
SrMo2O4,0.5346650366910151
SrNb2O4,0.32275426903140136
SrNd2O4,0.03458549992985649
SrNi2O4,0.4411726684820607
SrOs2O4,0.44329398330133696
SrPb2O4,0.08584529244248618
SrPd2O4,0.14186373523951268
SrPr2O4,0.05408381471565793
SrPt2O4,0.25474978044654684
SrRe2O4,0.4593316963223266
SrRh2O4,0.034106428020272084
SrRu2O4,0.20419512531472073
SrS2O4,0.26194869825143385
SrSb2O4,0.30092329782502514
SrSc2O4,0.028018598130930883
SrSe2O4,0.6698724282940072
SrSi2O4,0.8443514547406172
SrSm2O4,0.020773236511874238
SrSn2O4,0.2699405074745256
SrSr2O4,0.25914322155274494
SrTa2O4,0.4631786411630259
SrTb2O4,0.012851403324662947
SrTc2O4,0.3482867492252506
SrTe2O4,0.39409331139092707
SrTi2O4,0.1668944231655356
SrTl2O4,0.03372429385750575
SrTm2O4,0.007223222410471131
SrV2O4,0.11268102951048498
SrW2O4,1.0135940963580188
SrY2O4,0.00013380034006971186
SrYb2O4,error
SrZn2O4,0.3407241370240568
SrZr2O4,0.22083514521131598
TaAg2O4,0.15330745685166036
TaAl2O4,0.5906468260614295
TaAs2O4,0.7340000015690755
TaAu2O4,0.39168705870667075
TaBa2O4,0.14722524990688868
TaBe2O4,0.37961276100817276
TaBi2O4,0.46878596918994386
TaBr2O4,0.7894527527324815
TaC2O4,2.1736158750336516
TaCa2O4,0.1830103520426256
TaCd2O4,0.11725240724207353
TaCe2O4,0.43727856835080203
TaCl2O4,1.0011897143975519
TaCo2O4,0.23509012316180922
TaCr2O4,0.5528160824147506
TaCs2O4,0.1132600584253094
TaCu2O4,0.21992255810247752
TaDy2O4,0.6608872255080929
TaEr2O4,0.5940389244854636
TaEu2O4,0.18745718824995627
TaFe2O4,0.38169093255497977
TaGa2O4,0.6504395010855415
TaGd2O4,0.5931813052747312
TaGe2O4,0.4190158473852721
TaH2O4,1.169391436551381
TaHf2O4,0.6991450014084251
TaHg2O4,0.16924386827428872
TaHo2O4,0.6001763856977043
TaI2O4,0.5001450593746917
TaIn2O4,0.28350429644762354
TaIr2O4,0.9149757834939427
TaK2O4,0.09914292296847638
TaLa2O4,0.6676106106116784
TaLi2O4,0.22264529213251372
TaLu2O4,0.5994289149926786
TaMg2O4,0.2052816355576672
TaMn2O4,0.225557306910531
TaMo2O4,1.030116174940698
TaN2O4,2.144760491021433
TaNa2O4,0.1266992867533352
TaNb2O4,0.5505799685642003
TaNd2O4,0.6153834820272586
TaNi2O4,0.4481564160060323
TaOs2O4,1.1012987297932035
TaP2O4,1.0330891003233056
TaPb2O4,0.14043301673396869
TaPd2O4,0.42851787408074227
TaPr2O4,0.595828054588111
TaPt2O4,0.8721348505766073
TaRb2O4,0.1290796057810537
TaRe2O4,0.988242607194314
TaRh2O4,0.49969363956703905
TaRu2O4,0.7222268215334182
TaS2O4,1.3253495280350114
TaSb2O4,0.5277173122253087
TaSc2O4,0.33535684543627653
TaSe2O4,0.6791649177299108
TaSi2O4,1.5560875902279685
TaSm2O4,0.5641943934912543
TaSn2O4,0.2265572299844525
TaSr2O4,0.18594567322434674
TaTa2O4,0.7787560958507811
TaTb2O4,0.6430646517672294
TaTc2O4,0.7954554661643307
TaTe2O4,0.4726593294378567
TaTi2O4,0.3193267064631957
TaTl2O4,0.11610030183444486
TaTm2O4,0.5890973667653725
TaV2O4,0.4047815027930266
TaW2O4,1.846871453832832
TaY2O4,0.5684636373963095
TaYb2O4,error
TaZn2O4,0.255104163576954
TaZr2O4,0.7170269768260837
TbAg2O4,0.3271143394402385
TbAl2O4,0.4061148734883808
TbAs2O4,0.6956954839031217
TbAu2O4,0.36625784253630833
TbB2O4,1.8820604562177143
TbBa2O4,0.2511915671027882
TbBe2O4,0.723901887366643
TbBi2O4,0.307139989181497
TbBr2O4,0.8560919162034919
TbC2O4,2.2414038937766163
TbCa2O4,0.1859988561632111
TbCd2O4,0.1771853417786522
TbCe2O4,0.12812031412138047
TbCo2O4,0.18881529872577296
TbCr2O4,0.3134250732354813
TbCu2O4,0.26565742868828846
TbDy2O4,0.08480433516771413
TbEr2O4,0.1007651017715574
TbEu2O4,0.05134870985092377
TbFe2O4,0.2176564930814715
TbGa2O4,0.43075465319167616
TbGd2O4,0.04137779625943061
TbGe2O4,0.6625254788405561
TbHf2O4,0.2744356763182818
TbHg2O4,0.22338575246113823
TbHo2O4,0.04734531743033976
TbI2O4,0.7489659586115351
TbIn2O4,0.21853311082355287
TbIr2O4,0.4712003526316577
TbLa2O4,0.0723971673588828
TbLu2O4,0.06558198792038006
TbMg2O4,0.22977325625975897
TbMn2O4,0.1392441802359654
TbMo2O4,0.6308451332550558
TbN2O4,1.2055182231586068
TbNb2O4,0.35240728429943147
TbNd2O4,0.06173180482408114
TbNi2O4,0.40047499005596343
TbOs2O4,0.7339387928254233
TbPb2O4,0.18027824074251342
TbPd2O4,0.3454087379289277
TbPr2O4,0.025320895056317738
TbPt2O4,0.8043279020357916
TbRe2O4,0.5999140302370343
TbRh2O4,0.2104367141478738
TbRu2O4,0.4130134211797998
TbS2O4,1.5594500674213378
TbSb2O4,0.617210190788132
TbSc2O4,0.07702371967552324
TbSe2O4,0.7612822762855354
TbSi2O4,1.1090924648568183
TbSm2O4,0.09623850741979645
TbSn2O4,0.4879368707232219
TbSr2O4,0.20346866968784472
TbTa2O4,0.5757039733209837
TbTb2O4,0.023550017880374696
TbTc2O4,0.5525863230310621
TbTe2O4,0.6146800752828119
TbTi2O4,0.21849152548977813
TbTl2O4,0.17913349742249185
TbTm2O4,0.13819680437142168
TbV2O4,0.2052066728335138
TbW2O4,1.3229426130689932
TbY2O4,0.0342366349764216
TbYb2O4,error
TbZn2O4,0.2705111630281012
TbZr2O4,0.2858898767372846
TcAg2O4,0.0913792173493766
TcAl2O4,0.33079223029028704
TcAs2O4,0.6781957744025044
TcAu2O4,0.3125940120426449
TcB2O4,1.4207358911345223
TcBa2O4,0.32359347233419644
TcBe2O4,0.32856010914291556
TcBi2O4,0.2755442493198812
TcBr2O4,0.1735610011330886
TcC2O4,1.7872528112849393
TcCa2O4,0.15916652004817422
TcCd2O4,0.09363352834840999
TcCe2O4,0.7575893281710346
TcCl2O4,0.3238924112685977
TcCo2O4,0.2695366509973285
TcCr2O4,0.20454238385348233
TcCs2O4,0.0
TcCu2O4,0.15775868656438963
TcDy2O4,0.5587671605801008
TcEr2O4,0.5427515332593309
TcEu2O4,0.2296855966882525
TcFe2O4,0.32187069674122615
TcGa2O4,0.2712497170716084
TcGd2O4,0.5601042519631481
TcGe2O4,0.5693819138553016
TcH2O4,0.9413060158817759
TcHf2O4,0.9265408316632726
TcHg2O4,0.0
TcHo2O4,0.5488795757122729
TcI2O4,0.06636654363455374
TcIn2O4,0.3122007643952571
TcIr2O4,0.5327043355101573
TcK2O4,0.0
TcLa2O4,0.6165498141548511
TcLi2O4,0.0
TcLu2O4,0.5513749611926784
TcMg2O4,0.11127516765951295
TcMn2O4,0.09194976345690709
TcMo2O4,0.7399359242802692
TcN2O4,1.45195048634801
TcNa2O4,0.0
TcNb2O4,0.7286781514809668
TcNd2O4,0.5557004977304398
TcNi2O4,0.48226812828063803
TcOs2O4,0.7098783634703842
TcP2O4,1.1825589603874542
TcPb2O4,0.14792170762140433
TcPd2O4,0.33149351489112977
TcPr2O4,0.546498268368131
TcPt2O4,0.7282440958037473
TcRb2O4,0.0
TcRe2O4,0.6411257163924358
TcRh2O4,0.2796545852131045
TcRu2O4,0.4358420916252985
TcSb2O4,0.5730200902066525
TcSc2O4,0.4159125728536015
TcSe2O4,0.2977096850024239
TcSi2O4,1.1594430690265458
TcSm2O4,0.5453235765185838
TcSn2O4,0.3961075283035198
TcSr2O4,0.28102796471946156
TcTa2O4,1.0665168884533998
TcTb2O4,0.5746163044710446
TcTc2O4,0.4894152979021591
TcTe2O4,0.2947580403752532
TcTi2O4,0.5730316464704135
TcTl2O4,0.0
TcTm2O4,0.5596597049698975
TcV2O4,0.29361156440581304
TcW2O4,1.4744326731388346
TcY2O4,0.5276888609855614
TcYb2O4,error
TcZn2O4,0.1593106063646097
TcZr2O4,0.8743815223364653
TeAg2O4,0.09142643543378082
TeAl2O4,0.41109528469313616
TeAs2O4,0.552316421483094
TeAu2O4,0.33222012983989835
TeB2O4,1.6279147257732598
TeBa2O4,0.25396746464760334
TeBe2O4,0.36189010327058924
TeBi2O4,0.309430975422889
TeBr2O4,0.6082193072655651
TeC2O4,2.128562983046753
TeCa2O4,0.15265563855188802
TeCd2O4,0.08324928592604142
TeCe2O4,0.5767473821097173
TeCl2O4,0.7918713615388393
TeCo2O4,0.18704181576161183
TeCr2O4,0.18677510012147192
TeCs2O4,0.10172426697635384
TeCu2O4,0.18029821294468995
TeDy2O4,0.3515379082820038
TeEr2O4,0.3519755629079109
TeEu2O4,0.1761443333535233
TeFe2O4,0.2517070028631414
TeGa2O4,0.34163359091639567
TeGd2O4,0.364281173282869
TeGe2O4,0.5986892314887049
TeH2O4,0.9324295390837127
TeHf2O4,0.7583700467972605
TeHg2O4,0.15159709453202508
TeHo2O4,0.3535850991832863
TeI2O4,0.43294949599866817
TeIn2O4,0.21999808445306712
TeIr2O4,0.31178974830901574
TeK2O4,0.05409009590943015
TeLa2O4,0.44912223279491315
TeLi2O4,0.13024709468023232
TeLu2O4,0.357224869738233
TeMg2O4,0.11362266775004315
TeMn2O4,0.11602266633165748
TeMo2O4,0.5740988454483498
TeN2O4,1.7012779014501476
TeNa2O4,0.08471919260848004
TeNb2O4,0.5866435001748282
TeNd2O4,0.41889300387194783
TeNi2O4,0.28358003368254714
TeOs2O4,0.4632132058253964
TeP2O4,1.2075183058922372
TePb2O4,0.1905590664277339
TePd2O4,0.3693361173885572
TePr2O4,0.44557318886327923
TePt2O4,0.45289228040898877
TeRb2O4,0.03551641370148584
TeRe2O4,0.6382779479640623
TeRh2O4,0.1477830835576608
TeRu2O4,0.32777176511503914
TeS2O4,0.10993612730533275
TeSb2O4,0.46082554006040777
TeSc2O4,0.30750343944814773
TeSe2O4,0.6458473119938768
TeSi2O4,1.2953823326049756
TeSm2O4,0.37303050844150576
TeSn2O4,0.47129238670158813
TeSr2O4,0.23175135517708156
TeTa2O4,0.8037722888314018
TeTb2O4,0.35913930391658244
TeTc2O4,0.4656332980216442
TeTe2O4,0.47050055239249833
TeTi2O4,0.5852765305147294
TeTl2O4,0.05184393237622409
TeTm2O4,0.3470144858413624
TeV2O4,0.234325065788215
TeW2O4,1.208829051301593
TeY2O4,0.3789435872609346
TeYb2O4,error
TeZn2O4,0.15249387789393865
TeZr2O4,0.7022217042152725
TiAg2O4,0.20997728588968467
TiAl2O4,0.21416451590488172
TiAs2O4,0.6069954171714107
TiAu2O4,0.3327964952408333
TiB2O4,1.6316480368356965
TiBa2O4,0.25530087647299293
TiBe2O4,0.3492087654053453
TiBi2O4,0.31087574933650863
TiBr2O4,0.7358322956551673
TiC2O4,2.0823859468008825
TiCa2O4,0.03995209019223722
TiCd2O4,0.03459841799074859
TiCe2O4,0.19422452430799098
TiCo2O4,0.07517327824208309
TiCr2O4,0.3068752939292594
TiCu2O4,0.18143841950764905
TiDy2O4,0.3631300349474529
TiEr2O4,0.3370561561239569
TiEu2O4,0.13443718117858694
TiFe2O4,0.17440805088718037
TiGa2O4,0.29549128970701233
TiGd2O4,0.3163912532458557
TiGe2O4,0.4108266907812643
TiHf2O4,0.35056932829370346
TiHg2O4,0.14574938422330774
TiHo2O4,0.3230539488826647
TiI2O4,0.5561455253921563
TiIn2O4,0.27338609824612536
TiIr2O4,0.6171325680547142
TiLa2O4,0.3820498893955815
TiLu2O4,0.35864216248778824
TiMg2O4,0.0
TiMn2O4,0.02705029864686992
TiMo2O4,0.691410309280581
TiN2O4,1.7764281283904388
TiNb2O4,0.3110071343184586
TiNd2O4,0.33317334586769753
TiNi2O4,0.22568423542004457
TiOs2O4,0.7611606293967537
TiP2O4,0.9810728681199468
TiPb2O4,0.14179789457506864
TiPd2O4,0.3641268703709377
TiPr2O4,0.3253485780916794
TiPt2O4,0.7150662300189348
TiRe2O4,0.6441848760864133
TiRh2O4,0.262588524559491
TiRu2O4,0.489457830594743
TiS2O4,1.2366995095971456
TiSb2O4,0.43050382476942417
TiSc2O4,0.1354162999857067
TiSe2O4,0.6439196507772698
TiSi2O4,0.9640532832013564
TiSm2O4,0.30060133859652716
TiSn2O4,0.2549796304700216
TiSr2O4,0.1513946611664414
TiTa2O4,0.43927436608801607
TiTb2O4,0.345951009714339
TiTc2O4,0.5017659861457116
TiTe2O4,0.4760386233245102
TiTi2O4,0.09870875901154719
TiTl2O4,0.16759909277195018
TiTm2O4,0.3661731886552335
TiV2O4,0.15788771039783356
TiW2O4,1.43089246607064
TiY2O4,0.30145125691831787
TiYb2O4,error
TiZn2O4,0.074292046624028
TiZr2O4,0.2509333415789925
TlAg2O4,0.1748509994821532
TlAl2O4,0.2744058511335048
TlAs2O4,0.3973410430704769
TlAu2O4,0.15349169075946634
TlB2O4,1.706432239032731
TlBi2O4,0.07873565664714555
TlBr2O4,0.6138270821778296
TlC2O4,2.147144298473708
TlCe2O4,0.2662805502815937
TlCl2O4,1.0626691038116225
TlCo2O4,0.04862843956030449
TlCr2O4,0.03959378445419759
TlCu2O4,0.09158031842831171
TlDy2O4,0.04887548865202618
TlEr2O4,0.042576233179040024
TlEu2O4,0.03142537199394546
TlFe2O4,0.05504987183612986
TlGa2O4,0.12562100105712748
TlGd2O4,0.05403988777571023
TlGe2O4,0.45481825943340404
TlHf2O4,0.5353124032660883
TlHo2O4,0.041253426571433494
TlIn2O4,0.010905368156802986
TlIr2O4,0.10507177241574439
TlLa2O4,0.07971561599696564
TlLu2O4,0.02771829935939696
TlMn2O4,0.018145223532145316
TlMo2O4,0.3471761454855953
TlNb2O4,0.32870388889851476
TlNd2O4,0.08831275943864014
TlNi2O4,0.34483153199294314
TlOs2O4,0.3229949094474085
TlP2O4,1.2697017741186984
TlPb2O4,0.06726060593248562
TlPd2O4,0.12774250825452693
TlPr2O4,0.09614833239385945
TlPt2O4,0.23544867225874722
TlRe2O4,0.4839327892457943
TlRh2O4,0.0
TlRu2O4,0.15252973633478462
TlS2O4,1.310059102605483
TlSb2O4,0.2891989299370463
TlSc2O4,0.035707947735339474
TlSe2O4,0.4479148434800422
TlSi2O4,1.092707168429512
TlSm2O4,0.06458421993569985
TlSn2O4,0.2474624506705636
TlSr2O4,0.15318768010748673
TlTa2O4,0.5015126514836119
TlTb2O4,0.04406194972989841
TlTc2O4,0.30757875544421776
TlTe2O4,0.26969987705496745
TlTi2O4,0.3404656658066063
TlTl2O4,0.0
TlTm2O4,0.040023209731785414
TlV2O4,0.1332709597816315
TlW2O4,0.7628097562580045
TlY2O4,0.04549159884791276
TlYb2O4,error
TlZn2O4,0.164192762891191
TlZr2O4,0.43112642429798065
TmAg2O4,0.329755049716967
TmAl2O4,0.3596403129933581
TmAs2O4,0.6111770938133274
TmAu2O4,0.37939890730380643
TmB2O4,1.8298937182787336
TmBi2O4,0.2997974720675529
TmBr2O4,0.8424198848221387
TmC2O4,2.22157198832783
TmCe2O4,0.1292082147702125
TmCl2O4,1.2481616045323456
TmCo2O4,0.188220863161205
TmCr2O4,0.27999950961754827
TmCu2O4,0.31049225906324196
TmDy2O4,0.13380445023875254
TmEr2O4,0.134132791272771
TmEu2O4,0.060706055075614884
TmFe2O4,0.21760562771105096
TmGa2O4,0.37331476400626507
TmGd2O4,0.08167579124499014
TmGe2O4,0.6008612724919518
TmHf2O4,0.2927299512073418