Formula,Ehull
SrMo2O4,0.7576788640793648
SrNb2O4,0.3652812343548977
SrNd2O4,0.08878986771758957
SrNi2O4,0.45985801477429966
SrPb2O4,0.0667418502439352
SrPd2O4,0.16111280727523258
SrPr2O4,0.1083755961114834
SrRe2O4,0.1752626358935654
SrRh2O4,0.22553218579340584
SrRu2O4,0.26648003613533167
SrSb2O4,0.09135994081237442
SrSc2O4,0.16445069194915973
SrSm2O4,0.09755053493344246
SrSn2O4,0.1648707803815448
SrSr2O4,0.2591432215527476
SrTa2O4,0.26526541109988955
SrTb2O4,0.12550753890308464
SrTc2O4,0.38856002838156734
SrTi2O4,0.24395201267032007
SrTl2O4,0.06465280733477652
SrTm2O4,0.12890900800435467
SrV2O4,0.23767166399215256
SrW2O4,1.2326483556949706
SrY2O4,0.10407762071211657
SrZn2O4,0.18617334644588102
SrZr2O4,0.24252703256200903
TaAg2O4,0.09120689609495702
TaAl2O4,0.2853377339831962
TaAu2O4,0.18248017401227212
TaB2O4,0.4005429815629391
TaBa2O4,0.12983181838214097
TaBe2O4,0.17010496019885935
TaBi2O4,0.20177667663472576
TaCa2O4,0.13625771924042596
TaCd2O4,0.14999764854441544
TaCe2O4,0.29983415804862545
TaCo2O4,0.334557643279747
TaCr2O4,0.5284360639875523
TaCu2O4,0.13290903621337957
TaDy2O4,0.380294195770821
TaEr2O4,0.3651456322721316
TaEu2O4,0.13892168064968402
TaFe2O4,0.4600780115262264
TaGa2O4,0.3179735065552469
TaGd2O4,0.3344156305435426
TaH2O4,0.20343859007848142
TaHf2O4,0.4613292213271656
TaHg2O4,0.08248294859177285
TaHo2O4,0.33530299004567254
TaIr2O4,0.5671025279866004
TaK2O4,0.08372726691773202
TaLa2O4,0.2853177264301596
TaLi2O4,0.19518088006373624
TaLu2O4,0.35626012200603796
TaMg2O4,0.11136859420870948
TaMn2O4,0.23140449693057086
TaMo2O4,1.0092204453494222
TaNa2O4,0.08235016577616161
TaNb2O4,0.20991428228086484
TaNd2O4,0.3421118054674359
TaNi2O4,0.5435470190632454
TaOs2O4,0.5722141643425953
TaPb2O4,0.12524544760460365
TaPd2O4,0.24302111525150671
TaPr2O4,0.3041187604491249
TaPt2O4,0.3809582492677208
TaRb2O4,0.16162612640123886
TaRe2O4,0.46772976051541626
TaRh2O4,0.3935808480219958
TaRu2O4,0.4694632343380487
TaSc2O4,0.2437138147258242
TaSe2O4,0.18442180130734354
TaSi2O4,0.4691792930637586
TaSm2O4,0.31937860970592347
TaSr2O4,0.16606620874546874
TaTb2O4,0.40389960539508785
TaTc2O4,0.4019175574845111
TaTe2O4,0.13207834318381817
TaTi2O4,0.15321583849222264
TaTl2O4,0.07081418903722714
TaTm2O4,0.37469126803233266
TaV2O4,0.42948918623445564
TaW2O4,1.633794759100061
TaY2O4,0.3071348251471946
TaZn2O4,0.1651494976814627
TaZr2O4,0.4063432929976418
TbAg2O4,0.18730329592228756
TbAl2O4,0.23231152893187534
TbAs2O4,0.16727518086418502
TbAu2O4,0.13222346967467402
TbBa2O4,0.1338367192538792
TbBe2O4,0.2388092351636093
TbBi2O4,0.11289860400252749
TbCa2O4,0.1441949668548821
TbCd2O4,0.1293123981904678
TbCe2O4,0.055867403606191246
TbCo2O4,0.19649876608935557
TbCr2O4,0.3082682576285283
TbCu2O4,0.1630941238190946
TbDy2O4,0.0488410297854287
TbEr2O4,0.07112461362678957
TbEu2O4,0.007133005031928263
TbFe2O4,0.2187843020470348
TbGa2O4,0.21870160079789525
TbGd2O4,0.0
TbGe2O4,0.18235607765181605
TbHf2O4,0.28948866226787473
TbHg2O4,0.13538466112497805
TbHo2O4,0.04073878237946893
TbIn2O4,0.07732778492088421
TbIr2O4,0.33740013022339355
TbLa2O4,0.0007435117011223014
TbLu2O4,0.0656430318891772
TbMg2O4,0.24899867311982238
TbMn2O4,0.10551097707408985
TbMo2O4,0.7525332682289312
TbNb2O4,0.3221066354952171
TbNd2O4,0.018106465553225704
TbNi2O4,0.4756541119619726
TbOs2O4,0.4008753688179567
TbPb2O4,0.05304472509910951
TbPd2O4,0.1527882674774812
TbPr2O4,0.0
TbPt2O4,0.2870447729748813
TbRe2O4,0.3475804731493106
TbRh2O4,0.28940959949274525
TbRu2O4,0.3181960084033255
TbSb2O4,0.17925022976554228
TbSc2O4,0.06722215421032018
TbSi2O4,0.3575797146909174
TbSm2O4,0.06671678636230816
TbSn2O4,0.1947613354783373
TbSr2O4,0.11962774472907167
TbTa2O4,0.35887045017494756
TbTb2O4,0.023550017880376473
TbTc2O4,0.4354924499480646
TbTe2O4,0.14865343102438455
TbTi2O4,0.22825401457656547
TbTl2O4,0.023683396389048816
TbTm2O4,0.1323585654988424
TbV2O4,0.25806850481057886
TbW2O4,1.3997482007649502
TbY2O4,0.03231215848286517
TbZn2O4,0.21887350013504925
TbZr2O4,0.2483767334620719
TcAs2O4,0.20126012768718482
TcBa2O4,0.1611377870264814
TcBi2O4,0.1562511918669678
TcCa2O4,0.10665682705384416
TcCd2O4,0.09038268551796946
TcCe2O4,0.605838528171466
TcCo2O4,0.24062473044432142
TcCr2O4,0.26432641643349886
TcCu2O4,0.12734078041217511
TcEr2O4,0.33846807612510865
TcEu2O4,0.10790657748485799
TcFe2O4,0.33970940383202386
TcGd2O4,0.3022973664888582
TcHf2O4,0.6193487118486445
TcHo2O4,0.3264912349968885
TcIn2O4,0.19012842134715946
TcIr2O4,0.38510893889719267
TcLa2O4,0.3067654626846785
TcLi2O4,0.041325671054647906
TcMg2O4,0.09533995654341254
TcMn2O4,0.049634394848274255
TcMo2O4,0.8042383640221757
TcNb2O4,0.30072902465651197
TcNi2O4,0.5265371900248601
TcOs2O4,0.37831243647211465
TcPb2O4,0.1232537779823959
TcPd2O4,0.2242638581944485
TcPr2O4,0.3169320535621818
TcPt2O4,0.2855172626237765
TcRb2O4,0.06875893758574403
TcRe2O4,0.24132725428847657
TcRh2O4,0.24801339644770426
TcRu2O4,0.38703716483201767
TcSc2O4,0.3707388858320666
TcSi2O4,0.4848980590531564
TcSr2O4,0.18440001319960597
TcTa2O4,0.3961897828774603
TcTc2O4,0.4894152979021609
TcTi2O4,0.5177753240062746
TcV2O4,0.252660183436598
TcW2O4,1.3935796062626826
TcZn2O4,0.10895186636872811
TcZr2O4,0.5184760250132481
TeAg2O4,0.1027684986470474
TeAl2O4,0.22401469457524925
TeAs2O4,0.10735558086209274
TeAu2O4,0.10008830436124949
TeB2O4,0.18296008914733175
TeBa2O4,0.08283260181048568
TeBe2O4,0.17065743064592542
TeBi2O4,0.11876236734601786
TeCa2O4,0.10409190458076178
TeCd2O4,0.06010317528691633
TeCo2O4,0.17714407965056722
TeCr2O4,0.2336015774894067
TeCu2O4,0.12756931913651037
TeDy2O4,0.18599568287557844
TeEr2O4,0.17828641706888337
TeEu2O4,0.0824595461123021
TeFe2O4,0.2533871015746847
TeGa2O4,0.16476278289221735
TeGd2O4,0.13667399302240746
TeGe2O4,0.1819881091485689
TeH2O4,0.10817543934489837
TeHf2O4,0.31562888087331586
TeHg2O4,0.07025628895207925
TeHo2O4,0.13657349983076372
TeIn2O4,0.19755219636806665
TeIr2O4,0.30035767628381294
TeK2O4,0.14872071119692798
TeLa2O4,0.12082150557134685
TeLi2O4,0.20107052511541035
TeLu2O4,0.23677066044899053
TeMg2O4,0.11845074447500892
TeMn2O4,0.07674975714296828
TeMo2O4,0.5911321311716078
TeNa2O4,0.13890816666554429
TeNb2O4,0.21640405295365994
TeNd2O4,0.1457759777169345
TeNi2O4,0.32652254549064264
TeOs2O4,0.27954273802681673
TePb2O4,0.07232347338713652
TePd2O4,0.1976039089058652
TePr2O4,0.13240466129503048
TeRb2O4,0.08161754928348142
TeRh2O4,0.20281464010801376
TeRu2O4,0.30589962341227483
TeSb2O4,0.11793480909572285
TeSc2O4,0.20402877858059032
TeSe2O4,0.11558275204373736
TeSm2O4,0.15842749603157014
TeSn2O4,0.28606835307246925
TeSr2O4,0.13279008698104366
TeTa2O4,0.17672401860408016
TeTb2O4,0.15494166798552023
TeTc2O4,0.2893441706034956
TeTe2O4,0.47050055239249566
TeTl2O4,0.02482467675406763
TeTm2O4,0.17409467333532902
TeV2O4,0.21110590549942732
TeY2O4,0.22763419360731163
TeZn2O4,0.10524162482706423
TeZr2O4,0.3098450277260696
TiAg2O4,0.12595585109851548
TiAl2O4,0.12429431459837037
TiAu2O4,0.1431974393508364
TiBa2O4,0.1982004155827033
TiBe2O4,0.17586480894823353
TiBi2O4,0.1695939637874817
TiCa2O4,0.08528101496897467
TiCd2O4,0.050168918510204996
TiCe2O4,0.12277601499876667
TiCo2O4,0.1080952716286836
TiCr2O4,0.3019669546460495
TiCu2O4,0.125156800039111
TiDy2O4,0.23351675307869613
TiEr2O4,0.2567827386997017
TiEu2O4,0.1516358352952487
TiFe2O4,0.23779330348743777
TiGa2O4,0.1913308061930481
TiGd2O4,0.2177189668649362
TiGe2O4,0.15930765808914682
TiHf2O4,0.3059163263532234
TiHg2O4,0.1099616635171321
TiHo2O4,0.23887535232237767
TiI2O4,0.17055346505136715
TiIn2O4,0.09072860280625505
TiIr2O4,0.4864322184967387
TiLa2O4,0.17690979522413208
TiLu2O4,0.2412783305119266
TiMg2O4,0.052081933311937334
TiMn2O4,0.05364900687151497
TiMo2O4,0.7999676895842729
TiNb2O4,0.19601212687060787
TiNd2O4,0.2297706370088317
TiNi2O4,0.3121592628622789
TiOs2O4,0.4634925886690464
TiPb2O4,0.09548264379369176
TiPd2O4,0.2365357990972452
TiPr2O4,0.22082577036265683
TiPt2O4,0.31153157128288367
TiRe2O4,0.38976210893520147
TiRh2O4,0.2742276513986477
TiRu2O4,0.4193509809531566
TiSb2O4,0.16845284922961756
TiSc2O4,0.15037671676497766
TiSi2O4,0.3294304179767238
TiSm2O4,0.24359341836372295
TiSn2O4,0.12075700339483664
TiSr2O4,0.15557851625953667
TiTa2O4,0.13985017622456652
TiTb2O4,0.22979809361247128
TiTc2O4,0.3751487307534003
TiTi2O4,0.09870875901154896
TiTl2O4,0.0753487359674212
TiTm2O4,0.2706530327996859
TiV2O4,0.215195318106284
TiW2O4,1.463860216455144
TiY2O4,0.23835214637972513
TiZn2O4,0.060480052301286946
TiZr2O4,0.21116197425934047
TlAg2O4,0.14268654358285104
TlAl2O4,0.1987101532371911
TlAs2O4,0.06935515761030508
TlAu2O4,0.13002359306680855
TlB2O4,0.1448503528820897
TlBi2O4,0.08645462388648983
TlCe2O4,0.2635046046504357
TlCo2O4,0.13797685311857943
TlCr2O4,0.1849309867612643
TlCu2O4,0.1441427534835258
TlDy2O4,0.1688836096157651
TlEr2O4,0.1712058257555764
TlEu2O4,0.09314957097161347
TlFe2O4,0.1881787046666048
TlGa2O4,0.12278954279557741
TlGd2O4,0.14247150048395874
TlGe2O4,0.08879002226478594
TlHf2O4,0.3294121146537936
TlHo2O4,0.1674627520470331
TlIn2O4,0.13598734196666662
TlIr2O4,0.20218513862919885
TlLa2O4,0.110538366836753
TlLu2O4,0.16969308280136364
TlMn2O4,0.09286832917955667
TlMo2O4,0.4262016110831892
TlNb2O4,0.16551434870316672
TlNd2O4,0.1346444567540388
TlNi2O4,0.44012955038647483
TlOs2O4,0.289259255022829
TlPb2O4,0.048959886665433494
TlPd2O4,0.18992884193714143
TlPr2O4,0.1486287816191707
TlPt2O4,0.2569219658134134
TlRh2O4,0.23414020998919938
TlRu2O4,0.2550088774407735
TlSb2O4,0.1231687469690792
TlSc2O4,0.17031306744992758
TlSm2O4,0.12923603999373157
TlSn2O4,0.17526136500070066
TlSr2O4,0.08124540375876688
TlTa2O4,0.22503330048762749
TlTb2O4,0.15252278659504714
TlTc2O4,0.22342599862875367
TlTe2O4,0.06437939007270543
TlTm2O4,0.16742310991778275
TlV2O4,0.15577170423573872
TlW2O4,0.8294350977744482
TlY2O4,0.165730944799372
TlZn2O4,0.1649446047659806
TlZr2O4,0.28509084183333044
TmAg2O4,0.17507813840689757
TmAl2O4,0.24752467908852527
TmAu2O4,0.13754734015327408
TmB2O4,0.2415752791632082
TmBi2O4,0.12546021344022318
TmCe2O4,0.06630936223961648
TmCo2O4,0.17021352370054466
TmCr2O4,0.269829666957456
TmCu2O4,0.22883348244187207
TmDy2O4,0.10329888336162085
TmEr2O4,0.11563463261655649
TmEu2O4,0.00477073466806921
TmFe2O4,0.20165406027495258
TmGa2O4,0.18619214404666007
TmGd2O4,0.040521799593665975
TmGe2O4,0.17828371480680172
TmHf2O4,0.3049615391738385
TmHo2O4,0.08643200267148288
TmIn2O4,0.07398240988014226
TmIr2O4,0.3852635223252552
TmLa2O4,0.04977924131778266
TmLu2O4,0.10143587771647233
TmMn2O4,0.09508756900770976
TmMo2O4,0.7367143833935623
TmNb2O4,0.27251555071641675
TmNd2O4,0.06612155399869657
TmNi2O4,0.44138219538528123
TmPb2O4,0.058373923016599605
TmPd2O4,0.16442124885778409
TmPr2O4,0.01611972750355939
TmPt2O4,0.2841372762472689
TmRe2O4,0.4560809787778073
TmRh2O4,0.27071772967466856
TmRu2O4,0.3704752438467267
TmSb2O4,0.18455061095293424
TmSc2O4,0.09671687193998935
TmSm2O4,0.1148803180835749
TmSn2O4,0.137613792895376
TmSr2O4,0.09378744965523378
TmTa2O4,0.33800131820853885
TmTb2O4,0.08568917142523702
TmTc2O4,0.4443526168754044
TmTe2O4,0.15827553948814632
TmTi2O4,0.20792947742153167
TmTl2O4,0.02600830181946101
TmV2O4,0.2221456616033528
TmW2O4,1.3759637504856759
TmY2O4,0.07843158977130571
TmZn2O4,0.1867390682137735
TmZr2O4,0.273708643259333
VAg2O4,0.07856917794201035
VAl2O4,0.14327047950975658
VAs2O4,0.16315491314171382
VAu2O4,0.1219419025515629
VB2O4,0.23431208444454388
VBe2O4,0.13460039447751893
VBi2O4,0.12703166698866042
VCa2O4,0.06932639865959889
VCd2O4,0.03760557440420875
VCe2O4,0.4216366791968973
VCo2O4,0.13726783228557515
VCr2O4,0.1511110778655027
VCu2O4,0.08996428877232177
VDy2O4,0.25378311335509984
VEr2O4,0.240966558527143
VEu2O4,0.13202064774022837
VFe2O4,0.22206846023683546
VGa2O4,0.0797193962967997
VGd2O4,0.24563844637539312
VGe2O4,0.18850341926041647
VHf2O4,0.7164040543242489
VHg2O4,0.10303473471696556
VHo2O4,0.23837811981780987
VIn2O4,0.10045924349835733
VIr2O4,0.43379263244062916
VLa2O4,0.28641069651085616
VLu2O4,0.2293496691954946
VMg2O4,0.050032988678922585
VMn2O4,0.019354335006798173
VMo2O4,0.6245054333178173
VNb2O4,0.3385835979363634
VNd2O4,0.27118275474829634
VNi2O4,0.31848022621384686
VOs2O4,0.3583306847339376
VPd2O4,0.20889381822271336
VPr2O4,0.27660928989591493
VPt2O4,0.23168264799719118
VRe2O4,0.3103909369639428
VRh2O4,0.22016490601226657
VRu2O4,0.29843055399995944
VSb2O4,0.13166612151393853
VSc2O4,0.17749594333904994
VSe2O4,0.09438624346962232
VSm2O4,0.29952412964708586
VSn2O4,0.11039114715627907
VSr2O4,0.14033734046272794
VTa2O4,0.43852915483966015
VTb2O4,0.26982845765811625
VTe2O4,0.15137055014152256
VTi2O4,0.32164704271459144
VTl2O4,0.09221271675496912
VTm2O4,0.25243059135561374
VW2O4,1.2619280419363017
VY2O4,0.2513137308343989
VZn2O4,0.04067012233930978
VZr2O4,0.5748320638629583
WAl2O4,0.8028883237018132
WAs2O4,0.6271008488256493
WB2O4,0.8419244303159283
WBa2O4,0.45249321940555287
WBe2O4,0.3809895774686929
WBi2O4,0.5583009529666194
WCa2O4,0.3911019153731887
WCd2O4,0.2630815358925638
WCo2O4,0.3934305670632865
WCr2O4,0.620386313727491
WDy2O4,0.9541531165392403
WEr2O4,0.9232031817643618
WEu2O4,0.4935168861898074
WFe2O4,0.4872134552888605
WGa2O4,0.6939110847468966
WGd2O4,0.9336612350802138
WGe2O4,0.8765875583503604
WH2O4,0.184748523936773
WHf2O4,1.6062319460966812
WHo2O4,0.9144921164058806
WIn2O4,0.5943830744359664
WIr2O4,0.7578571765959561
WLa2O4,0.9717031725303826
WLi2O4,0.20729638425005437
WLu2O4,0.9438202782160374
WMg2O4,0.29373586273048957
WMn2O4,0.3542475101603477
WMo2O4,1.0066495564778197
WNa2O4,0.16345282321877797
WNb2O4,1.1890652059408922
WNd2O4,0.9609326235211375
WNi2O4,0.651861584171308
WOs2O4,0.8018700926090583
WPb2O4,0.3332203393029243
WPr2O4,0.9172823562347983
WRe2O4,0.82227637182066
WRh2O4,0.635700591126092
WRu2O4,0.8394013318113265
WSb2O4,0.7567576242810512
WSc2O4,0.8080144913051068
WSm2O4,0.9542953452551055
WSn2O4,0.8114746578801668
WSr2O4,0.4248035961481085
WTa2O4,1.2820415773092062
WTb2O4,0.977354341908188
WTc2O4,0.9852697773734693
WTi2O4,1.1976694801674608
WTm2O4,0.9608675205718846
WV2O4,0.7643055415040854
WW2O4,1.7245908541243384
WY2O4,0.9413476954125493
WZn2O4,0.2952793586518796
WZr2O4,1.4712048622601497
YAg2O4,0.17910278118430156
YAl2O4,0.23365199236876943
YAs2O4,0.15626931178321612
YAu2O4,0.1347559368017608
YBa2O4,0.09713679208546377
YBe2O4,0.28235840596916884
YBi2O4,0.14191731338934144
YCa2O4,0.11594180995730419
YCd2O4,0.11274884342203872
YCe2O4,0.05294633099019208
YCo2O4,0.18357899452931292
YCr2O4,0.2941517905120872
YCu2O4,0.2595125568441725
YDy2O4,0.05075923754722034
YEr2O4,0.07065370084327682
YEu2O4,0.005394632275120159
YFe2O4,0.21443380905605025
YGa2O4,0.17390362052509012
YGd2O4,0.0030641965117368386
YGe2O4,0.1848623402822147
YHf2O4,0.2993564930675898
YHg2O4,0.1323138077300534
YHo2O4,0.04417273906328667
YIn2O4,0.07419924765560104
YIr2O4,0.364558218546323
YLa2O4,0.008544079934667437
YLu2O4,0.06682645649817154
YMg2O4,0.21822787466486027
YMn2O4,0.10327363353212071
YMo2O4,0.7860018278039469
YNb2O4,0.2927322665016412
YNd2O4,0.024891960569680904
YNi2O4,0.4578225768327657
YOs2O4,0.4004019242076282
YPb2O4,0.06258887017028325
YPd2O4,0.22573181130217712
YPr2O4,0.0
YPt2O4,0.3041364731511633
YRh2O4,0.22512756041486792
YRu2O4,0.3885514670217063
YSb2O4,0.19046794617964657
YSc2O4,0.05870853786883856
YSe2O4,0.05013504248343548
YSi2O4,0.3914040725564041
YSm2O4,0.06564429732874366
YSn2O4,0.1804545200069212
YSr2O4,0.08501812079393467
YTa2O4,0.29991850246810436
YTb2O4,0.030708961977262916
YTc2O4,0.4402731124898871
YTi2O4,0.2319095695332969
YTl2O4,0.02812707067120712
YTm2O4,0.1276767966148462
YV2O4,0.24941109848194998
YW2O4,1.3738797503889542
YY2O4,0.03320529965233909
YZn2O4,0.20265338502763264
YZr2O4,0.2624840742900947
ZnAg2O4,0.19755286710082665
ZnAl2O4,0.12272414917258967
ZnAs2O4,0.13031865045925972
ZnAu2O4,0.1297216807564574
ZnBa2O4,0.15858720098529755
ZnBe2O4,0.4097792749304521
ZnBi2O4,0.12402772242677873
ZnCa2O4,0.20262428423806522
ZnCd2O4,0.25806907002988666
ZnCe2O4,0.3004544531243729
ZnCl2O4,0.291881650346836
ZnCo2O4,0.19641191935355184
ZnCr2O4,0.27899865960908254
ZnCu2O4,0.1387953368406567
ZnDy2O4,0.1681927469624549
ZnEr2O4,0.18137529823324527
ZnEu2O4,0.1642428193957155
ZnFe2O4,0.12503782993119916
ZnGa2O4,0.06681347350946343
ZnGd2O4,0.16236045152217393
ZnHg2O4,0.22572322494036623
ZnHo2O4,0.17580949720850025
ZnIn2O4,0.08028977338999077
ZnIr2O4,0.33479539579188256
ZnLa2O4,0.15258001651378983
ZnLu2O4,0.164894831948037
ZnMg2O4,0.3078938511723184
ZnMn2O4,0.11897101712759373
ZnMo2O4,0.522050927793063
ZnNb2O4,0.23250005982146327
ZnNd2O4,0.17232799505406593
ZnNi2O4,0.44086896440450474
ZnOs2O4,0.3043033371038737
ZnP2O4,0.23114592114531618
ZnPb2O4,0.09332294831331733
ZnPd2O4,0.1227929507935892
ZnPr2O4,0.16948281512108654
ZnPt2O4,0.2063425545840616
ZnRe2O4,0.23915953102127396
ZnRh2O4,0.14845008875841526
ZnRu2O4,0.25796218941973237
ZnSb2O4,0.11570997247293757
ZnSc2O4,0.1205363689237604
ZnSm2O4,0.17583476145284394
ZnSn2O4,0.17717546906205417
ZnSr2O4,0.17641268500948648
ZnTa2O4,0.34199503297699074
ZnTb2O4,0.16357771291763346
ZnTc2O4,0.2686694078535403
ZnTi2O4,0.2306170384262316
ZnTl2O4,0.08142071403505557
ZnTm2O4,0.18166777040301607
ZnV2O4,0.13028688159367796
ZnW2O4,1.0688475600090745
ZnY2O4,0.1665645269686804
ZnZn2O4,0.25884597350130356
ZnZr2O4,0.4381928963056563
ZrAg2O4,0.16658802751564128
ZrAl2O4,0.21107598114580917
ZrAs2O4,0.20093640574336558
ZrAu2O4,0.19782347967909164
ZrBa2O4,0.186436146043242
ZrBe2O4,0.22068248590097372
ZrBi2O4,0.1940809733107356
ZrCa2O4,0.06538534953207265
ZrCd2O4,0.0537222830763362
ZrCo2O4,0.16620502193430564
ZrCr2O4,0.40451009935807747
ZrCu2O4,0.18902963996353517
ZrDy2O4,0.2101079301132529
ZrEr2O4,0.23017407051058214
ZrEu2O4,0.0817336470271286
ZrFe2O4,0.3087268798101741
ZrGa2O4,0.23464359087212738
ZrGd2O4,0.19126511331860208
ZrGe2O4,0.20949529805107936
ZrHf2O4,0.30323165588425205
ZrHg2O4,0.12201998079558507
ZrHo2O4,0.18741176660057235
ZrIr2O4,0.5236211127377723
ZrLa2O4,0.19511800050215022
ZrLu2O4,0.21892807282983817
ZrMg2O4,0.10233233122685714
ZrMn2O4,0.0627048134757704
ZrMo2O4,0.912320596010396
ZrNb2O4,0.33346019807642513
ZrNd2O4,0.187624483294492
ZrNi2O4,0.3876486407892461
ZrOs2O4,0.4917799084851726
ZrPb2O4,0.11049909561131255
ZrPd2O4,0.2832556088145308
ZrPr2O4,0.18968646342135287
ZrPt2O4,0.3004360328304667
ZrRe2O4,0.47447647048652897
ZrRh2O4,0.34714767753247866
ZrRu2O4,0.49758783893046576
ZrSc2O4,0.1459097587893794
ZrSi2O4,0.41229469134687324
ZrSm2O4,0.20617927388038737
ZrSn2O4,0.16636182744229533
ZrSr2O4,0.11700771566608292
ZrTa2O4,0.3030360683549347
ZrTb2O4,0.19922509280056389
ZrTc2O4,0.5100438264156342
ZrTe2O4,0.1757323654911076
ZrTi2O4,0.20456765757274376
ZrTl2O4,0.06039307114198955
ZrTm2O4,0.23989749320392129
ZrV2O4,0.3251077872299408
ZrW2O4,1.5245845173335288
ZrY2O4,0.1861464881956092
ZrZn2O4,0.12109499665125156