Formula,Ehull
LuBr2O4,0.8499758007125795
LuC2O4,2.197849289737926
LuCe2O4,0.1133856844585388
LuCl2O4,1.2232241697786428
LuCo2O4,0.18060035115252493
LuCr2O4,0.25667022768808856
LuCu2O4,0.2959127905799006
LuDy2O4,0.0896058317796502
LuEr2O4,0.09251518260886193
LuEu2O4,0.061005083655516046
LuFe2O4,0.20898055131198934
LuGa2O4,0.35133055246607636
LuGd2O4,0.051918238761782476
LuGe2O4,0.5800913559371805
LuHf2O4,0.2841228771773139
LuHo2O4,0.053032454669404316
LuI2O4,0.7257831838085851
LuIn2O4,0.21321847611735834
LuIr2O4,0.4995866468696475
LuLa2O4,0.08617322859459442
LuLu2O4,0.07091411181317575
LuMn2O4,0.13614150330106956
LuMo2O4,0.6201505282854276
LuN2O4,1.1571998899909284
LuNb2O4,0.31589890446675817
LuNd2O4,0.0688584617670962
LuNi2O4,0.3846791401542733
LuOs2O4,0.7272220030698922
LuPb2O4,0.19064068382109944
LuPd2O4,0.35153621880440156
LuPr2O4,0.04350070003420825
LuPt2O4,0.752973233313277
LuRe2O4,0.5873650958999708
LuRh2O4,0.19283471393045293
LuRu2O4,0.43596043770437287
LuS2O4,1.5356977049262648
LuSb2O4,0.5374078249822691
LuSc2O4,0.04840453832900593
LuSe2O4,0.6520113784192754
LuSi2O4,1.1021038277928756
LuSm2O4,0.0927418172579415
LuSn2O4,0.41225274275837087
LuSr2O4,0.2019834913512888
LuTa2O4,0.5271463332630457
LuTb2O4,0.03766449007945383
LuTc2O4,0.5501210960602867
LuTe2O4,0.5921206328586628
LuTi2O4,0.1647554458589955
LuTl2O4,0.18192655538259217
LuTm2O4,0.1318034230859091
LuV2O4,0.16527621817593996
LuW2O4,1.284012997316939
LuY2O4,0.043647919477109554
LuYb2O4,error
LuZn2O4,0.2490318516921608
LuZr2O4,0.24840615500163388
MgAg2O4,0.2951502982413352
MgAl2O4,0.0
MgAs2O4,0.39217492856523695
MgAu2O4,0.21101264694669108
MgB2O4,1.3400296100982496
MgBi2O4,0.19626981624374196
MgBr2O4,0.7211890971958588
MgC2O4,1.914287815608592
MgCe2O4,0.1570046159310312
MgCl2O4,0.1884775254309501
MgCo2O4,0.14359258214186177
MgCr2O4,0.032153770530243264
MgCu2O4,0.113288747770671
MgDy2O4,0.15122524771909873
MgEr2O4,0.13041094163486466
MgEu2O4,0.2058131119997526
MgFe2O4,0.024523388740931296
MgGa2O4,0.008008617828838105
MgGd2O4,0.18523636585647907
MgGe2O4,0.390988100694206
MgHf2O4,0.2492689801775132
MgHo2O4,0.14018009194176084
MgI2O4,0.6224282062076147
MgIn2O4,0.03706591708262241
MgIr2O4,0.30156282264873546
MgLa2O4,0.26632573443775076
MgLu2O4,0.10533680025718528
MgMn2O4,0.06603026113805033
MgMo2O4,0.4063806182528884
MgN2O4,0.9983472930637785
MgNb2O4,0.18336907907109357
MgNd2O4,0.24684674883959357
MgNi2O4,0.35499890683956536
MgOs2O4,0.3870167945725784
MgP2O4,1.1476665531671078
MgPb2O4,0.15024926469856048
MgPd2O4,0.14652988378955367
MgPr2O4,0.2643523698155432
MgPt2O4,0.412624797221663
MgRe2O4,0.3965049637349285
MgRh2O4,0.03381584198498455
MgRu2O4,0.22219837615887794
MgS2O4,1.2184258307026727
MgSb2O4,0.41477864083072635
MgSc2O4,0.035669678366666346
MgSe2O4,0.6619599487094154
MgSi2O4,0.7772323216505059
MgSm2O4,0.20869832527486132
MgSn2O4,0.316058912683733
MgSr2O4,0.4262475559696721
MgTa2O4,0.3171336425877236
MgTb2O4,0.1704389382870799
MgTc2O4,0.2921426687340043
MgTe2O4,0.4913672448037598
MgTi2O4,0.012792457592565754
MgTl2O4,0.10374413981579078
MgTm2O4,0.11850127241063202
MgV2O4,0.028617417731787498
MgW2O4,0.9441992934271886
MgY2O4,0.14272358936265483
MgYb2O4,error
MgZn2O4,0.29134905778819054
MgZr2O4,0.11279398795108797
MnAg2O4,0.23062883909964516
MnAl2O4,0.014298024722871006
MnAs2O4,0.33077893066159003
MnAu2O4,0.21955550624167053
MnB2O4,1.3158646368146067
MnBa2O4,0.35690778222121544
MnBe2O4,0.355113601013894
MnBi2O4,0.11680369850574301
MnBr2O4,0.8093212573544957
MnC2O4,1.9792614695773327
MnCa2O4,0.2203043767713373
MnCd2O4,0.16625028652460028
MnCe2O4,0.46388466962934594
MnCl2O4,0.940454517526149
MnCo2O4,0.10859422708312483
MnCr2O4,0.017095446393218694
MnCs2O4,0.1691208781600393
MnCu2O4,0.1229306835294457
MnDy2O4,0.13647876367868683
MnEr2O4,0.11433014700431876
MnEu2O4,0.15407739939264786
MnFe2O4,0.09630687722680342
MnGa2O4,0.0
MnGd2O4,0.15062646183353934
MnGe2O4,0.3015837249661475
MnH2O4,0.9761618809198698
MnHf2O4,0.6093962584377923
MnHg2O4,0.23400283453572257
MnHo2O4,0.12897754250460736
MnI2O4,0.5875398254807944
MnIn2O4,0.005053716657003271
MnIr2O4,0.2479114422825015
MnK2O4,0.10972399377517394
MnLa2O4,0.29987201409956477
MnLi2O4,0.25558228858247745
MnLu2O4,0.11103794545612189
MnMg2O4,0.151350706066963
MnMn2O4,0.052956217915955506
MnMo2O4,0.3800973012466775
MnNa2O4,0.13377362737921583
MnNb2O4,0.3707933244014203
MnNd2O4,0.20732717871798023
MnNi2O4,0.29241244347957185
MnOs2O4,0.30702109432714497
MnP2O4,1.1219746106916482
MnPb2O4,0.17574894736365643
MnPd2O4,0.1529685254873332
MnPr2O4,0.22541095406148504
MnPt2O4,0.3325947182876643
MnRb2O4,0.13049757685028585
MnRe2O4,0.3718416413421508
MnRh2O4,0.05030408694917732
MnRu2O4,0.17333071462282135
MnS2O4,0.19073811508124638
MnSb2O4,0.2796113573929535
MnSc2O4,0.03250070331706034
MnSe2O4,0.6133206803054412
MnSi2O4,0.9434426350858613
MnSm2O4,0.1782681176983676
MnSn2O4,0.30741352626926144
MnSr2O4,0.353245293636685
MnTa2O4,0.5858380414285964
MnTb2O4,0.13978102358730915
MnTc2O4,0.21507601955574884
MnTe2O4,0.3989576948985212
MnTi2O4,0.27337524365432664
MnTl2O4,0.1069748014107299
MnTm2O4,0.11749456161329164
MnV2O4,0.013704562962567834
MnW2O4,0.8907717041904553
MnY2O4,0.11687571335554203
MnYb2O4,error
MnZn2O4,0.1853764604311383
MnZr2O4,0.499048828844348
MoAg2O4,0.0
MoAl2O4,0.6499659392657984
MoAs2O4,0.7598153891060848
MoAu2O4,0.3115782216606586
MoB2O4,1.7294543647978315
MoBa2O4,0.38772295020822956
MoBe2O4,0.43854929413197397
MoBi2O4,0.6050522429047804
MoBr2O4,0.4417151241443502
MoC2O4,2.5099378875180776
MoCa2O4,0.2726037603726681
MoCd2O4,0.1838802034745024
MoCe2O4,1.0217193271819696
MoCl2O4,0.7864665450437522
MoCo2O4,0.22978664554434758
MoCr2O4,0.450827958810879
MoCs2O4,0.09008757467860296
MoCu2O4,0.1832723596327206
MoDy2O4,0.7750876248644989
MoEr2O4,0.7416658597284691
MoEu2O4,0.46185262196140187
MoFe2O4,0.32874427982047294
MoGa2O4,0.5663883173470339
MoGd2O4,0.7719787798696434
MoGe2O4,0.8867856326960659
MoH2O4,1.1007166486954736
MoHf2O4,1.3752568357118573
MoHg2O4,0.09266056825063895
MoHo2O4,0.7557275003633688
MoI2O4,0.23747361828335123
MoIn2O4,0.5872212203545475
MoIr2O4,0.7293082522056782
MoK2O4,0.04322331117904099
MoLa2O4,0.8159767694075057
MoLi2O4,0.041561167893944706
MoLu2O4,0.7565605917309908
MoMg2O4,0.22491485084550877
MoMn2O4,0.23408497406716666
MoMo2O4,0.6965388977923341
MoN2O4,1.8241784095337632
MoNa2O4,0.007085733965149998
MoNb2O4,1.0725150551342644
MoNd2O4,0.7941460079396814
MoNi2O4,0.5139401741941203
MoOs2O4,0.9113548109484944
MoP2O4,1.4685833964228863
MoPb2O4,0.3047107007216727
MoPd2O4,0.35669963123636794
MoPr2O4,0.8382804680931413
MoPt2O4,0.772585780477713
MoRb2O4,0.06831967068693512
MoRe2O4,1.0377847471375272
MoRh2O4,0.4841126083409444
MoRu2O4,0.6947205702991921
MoS2O4,1.350986269370802
MoSb2O4,1.1952933344917591
MoSc2O4,0.6461506796624121
MoSe2O4,0.5689827651151642
MoSm2O4,0.7938536055537391
MoSn2O4,0.7436388408873382
MoSr2O4,0.3350161024840057
MoTa2O4,1.4075231358062847
MoTb2O4,0.804665866285923
MoTc2O4,0.8783211672204478
MoTe2O4,0.571139307876475
MoTi2O4,0.9712465656852807
MoTl2O4,0.038694989604800334
MoTm2O4,0.762641843089793
MoV2O4,0.5674519721877278
MoW2O4,1.3521433414770447
MoY2O4,0.7430323240617973
MoYb2O4,error
MoZn2O4,0.2469053222729487
MoZr2O4,1.2872406113992607
NAg2O4,0.40505120807264383
NAl2O4,0.9148515243055027
NAs2O4,1.0662623953270431
NB2O4,1.5029262462921835
NBa2O4,0.7810278506938015
NCa2O4,0.8456251740327083
NCd2O4,0.5920793677066918
NCe2O4,1.1097975578087471
NCl2O4,0.8078956544260172
NCo2O4,0.5860920400957834
NCr2O4,1.046869968764093
NCu2O4,0.5218948107150849
NDy2O4,1.1859616005543465
NEr2O4,1.1845318927220436
NEu2O4,1.0533565143393409
NFe2O4,0.6561273851449041
NGa2O4,0.9731824531345108
NGe2O4,1.262292751540981
NHf2O4,1.220384470952606
NHg2O4,0.4954120172999006
NHo2O4,1.1901009192457916
NI2O4,0.8665740207889874
NIn2O4,1.0571958245735074
NIr2O4,1.0871292943000537
NLu2O4,1.1466599786918916
NMg2O4,0.7930586723639745
NMn2O4,0.8814034578194638
NMo2O4,1.4492728264908639
NN2O4,2.0053128191960283
NNb2O4,1.1890944662921203
NNd2O4,1.2771841180845112
NNi2O4,0.7006929513128926
NOs2O4,1.0590594524444539
NP2O4,1.497427651623454
NPb2O4,0.5493239685238089
NPd2O4,0.5937425169489812
NPr2O4,1.2861077232853555
NPt2O4,0.9536836754500406
NRe2O4,1.2267506749921573
NRh2O4,0.762235274841558
NRu2O4,0.6300053684366089
NSb2O4,0.0
NSc2O4,1.073483723533963
NSe2O4,1.1680128530201834
NSi2O4,1.6528606643850159
NSm2O4,1.3639741554931613
NSn2O4,1.3037576126959127
NSr2O4,0.9131989627546799
NTa2O4,1.4869213653138047
NTb2O4,1.211316349382047
NTc2O4,1.1053303742801956
NTe2O4,1.122228377818674
NTi2O4,1.3115695575320023
NTl2O4,0.47305982238455613
NTm2O4,1.153155865382721
NV2O4,1.0907579283144209
NW2O4,1.05458270835795
NY2O4,1.173322489917589
NYb2O4,error
NZn2O4,0.7448143920261163
NZr2O4,1.1847697093492133
NaAs2O4,0.32498348305996494
NaAu2O4,0.13272937905820736
NaBi2O4,0.059100570141528586
NaC2O4,2.0873271547214207
NaCe2O4,0.06249590054249765
NaCl2O4,1.126338480014438
NaCo2O4,0.11691714036188383
NaCr2O4,0.05487806410294738
NaCu2O4,0.17634830063676343
NaDy2O4,0.1303476894214981
NaEr2O4,0.12570491196284284
NaEu2O4,0.09605849841377356
NaFe2O4,0.12240887559287739
NaGa2O4,0.1495572024002163
NaGd2O4,0.12459546227796814
NaGe2O4,0.22339704579532604
NaHf2O4,0.05015809230063262
NaIr2O4,0.08569205458659024
NaLa2O4,0.10011175966909569
NaMn2O4,0.055863623262472295
NaMo2O4,0.29516118427577887
NaN2O4,1.0202576768693508
NaNb2O4,0.15998731014449774
NaNd2O4,0.14500776546843852
NaNi2O4,0.39312200043298784
NaOs2O4,0.25266636030493217
NaP2O4,1.0583910268497627
NaPb2O4,0.0
NaPd2O4,0.009107670377819232
NaPr2O4,0.17749651736082406
NaPt2O4,0.05603562010416141
NaRe2O4,0.3410888231991622
NaRh2O4,0.027193822202804974
NaRu2O4,0.06313136032818445
NaS2O4,1.1826131712616323
NaSb2O4,0.24787321077278257
NaSe2O4,0.42798062554040595
NaSi2O4,0.4284971656893042
NaSm2O4,0.1091359690131446
NaSn2O4,0.08050309352559193
NaTa2O4,0.2826070257581179
NaTb2O4,0.17197823060961603
NaTc2O4,0.1949710770485673
NaTe2O4,0.25246939560656045
NaTi2O4,0.014293116548337537
NaV2O4,0.037230060048853986
NaW2O4,0.6972296107377254
NaY2O4,0.11996345676317155
NaYb2O4,error
NaZn2O4,0.35979728704778413
NaZr2O4,0.03282875474993929
NbAg2O4,0.1190992935614057
NbAl2O4,0.36956263606782436
NbAs2O4,0.6741882915200046
NbAu2O4,0.3738900061777368
NbB2O4,1.7351990430358741
NbBa2O4,0.16157797750052705
NbBe2O4,0.3649425363109504
NbBi2O4,0.4077323879656136
NbBr2O4,0.7100390004452857
NbC2O4,2.0881614598410554
NbCa2O4,0.1267934241209927
NbCd2O4,0.0670098840999449
NbCe2O4,0.369138702490293
NbCl2O4,0.9542223717675204
NbCo2O4,0.18147781535207663
NbCr2O4,0.40196900504992783
NbCs2O4,0.03222096374987071
NbCu2O4,0.18025738584643758
NbDy2O4,0.4822645161531778
NbEr2O4,0.42734929257264476
NbEu2O4,0.2012227651340357
NbFe2O4,0.3247034962693913
NbGa2O4,0.3611116027469574
NbGd2O4,0.4258232579820085
NbGe2O4,0.3663965243839922
NbH2O4,1.2317295588464976
NbHf2O4,0.6333787934446633
NbHg2O4,0.14319186364360803
NbHo2O4,0.4291575910277281
NbI2O4,0.4702639091668832
NbIn2O4,0.23294330365852556
NbIr2O4,0.8018180655627303
NbK2O4,0.029353544749251448
NbLa2O4,0.5264596866648432
NbLi2O4,0.16761098473367486
NbLu2O4,0.4321459818746831
NbMg2O4,0.11606044124488779
NbMn2O4,0.17274557468300067
NbMo2O4,0.8915877169738078
NbN2O4,1.0236495217383057
NbNa2O4,0.10374965558333482
NbNb2O4,0.4279737144461837
NbNd2O4,0.47586728513552856
NbNi2O4,0.4259557058004333
NbOs2O4,0.9447170807020857
NbP2O4,0.969512995939942
NbPb2O4,0.12649041339826805
NbPd2O4,0.3946475741893325
NbPr2O4,0.46238047129846116
NbPt2O4,0.8553777568805518
NbRb2O4,0.038447675076680454
NbRe2O4,0.7485696455704822
NbRh2O4,0.4282088663151651
NbRu2O4,0.6298056729156549
NbS2O4,1.164176325241388
NbSb2O4,0.46242697127414
NbSc2O4,0.2427890122938834
NbSe2O4,0.6282126525126301
NbSm2O4,0.41669639515709456
NbSn2O4,0.19127060302275556
NbSr2O4,0.15093419609398584
NbTa2O4,0.6697225437798888
NbTb2O4,0.4775245879972694
NbTc2O4,0.6115309543917249
NbTe2O4,0.42090140709037627
NbTi2O4,0.2697382221415747
NbTl2O4,0.08576640165072114
NbTm2O4,0.4361029406959833
NbV2O4,0.26610692469786557
NbW2O4,1.648546346051507
NbY2O4,0.4143711765676681
NbYb2O4,error
NbZn2O4,0.1581914235477493
NbZr2O4,0.5956176256958301
NdAg2O4,0.3198480603441194
NdAl2O4,0.4355782621976063
NdAs2O4,0.6794069656684636
NdAu2O4,0.37620525246048686
NdB2O4,1.9737783960367743
NdBa2O4,0.17164632173568606
NdBe2O4,0.8134072228216089
NdBi2O4,0.25735368895220745
NdBr2O4,0.8661848740442109
NdC2O4,2.2693635018249587
NdCa2O4,0.15865463684575598
NdCd2O4,0.17120423035229404
NdCe2O4,0.08348518767076563
NdCo2O4,0.19078174532262526
NdCr2O4,0.31657599674420034
NdCu2O4,0.363541990662549
NdDy2O4,0.06473480643653495
NdEr2O4,0.08143562605735433
NdEu2O4,0.021045570445226147
NdFe2O4,0.2375579283363738
NdGa2O4,0.42875166021528344
NdGd2O4,0.009365099407714794
NdGe2O4,0.6186839516867861
NdHf2O4,0.2886177536172472
NdHg2O4,0.22519910632809914
NdHo2O4,0.029877245496466642
NdI2O4,0.7190171734933086
NdIn2O4,0.17336876653982625
NdIr2O4,0.43068321681617316
NdLa2O4,0.0441811231549174
NdLu2O4,0.0357574145285362
NdMg2O4,0.22182284730688195
NdMn2O4,0.1563172555919694
NdMo2O4,0.6187193783436129
NdNb2O4,0.3757759943313417
NdNd2O4,0.02187520789590458
NdNi2O4,0.4310108498128047
NdOs2O4,0.7398209886971756
NdPb2O4,0.15599542765950591
NdPd2O4,0.39030495601293236
NdPr2O4,0.0
NdPt2O4,0.7429863639993393
NdRe2O4,0.6019439319843336
NdRh2O4,0.20245928914381928
NdRu2O4,0.3744971133133195
NdS2O4,1.4834563905339309
NdSb2O4,0.5778441707217885
NdSc2O4,0.06676166483440404
NdSe2O4,0.7462092535955929
NdSi2O4,1.0652068217981467
NdSm2O4,0.05700080864632007
NdSn2O4,0.47530267326228515
NdSr2O4,0.13241077514745836
NdTa2O4,0.5979263797385563
NdTb2O4,0.010690814222485301
NdTc2O4,0.5197148103365405
NdTe2O4,0.57718547057907
NdTi2O4,0.24196795508273183
NdTl2O4,0.16963702243990664
NdTm2O4,0.10657774838118073
NdV2O4,0.2023916151061247
NdW2O4,1.3280694418483217
NdY2O4,0.02295781364365901
NdYb2O4,error
NdZn2O4,0.2833322560420397
NdZr2O4,0.29168283911263515
NiAg2O4,0.4124258009007695
NiAl2O4,0.12308872605618326
NiAs2O4,0.5790028080994682
NiAu2O4,0.35872985188985673
NiB2O4,1.1098824590479506
NiBa2O4,0.6473985345352542
NiBe2O4,0.5781327566804277
NiBi2O4,0.3430757627198151
NiBr2O4,1.1136587232700834
NiC2O4,2.1089072807351705
NiCa2O4,0.426097429648979
NiCd2O4,0.3614160281852792
NiCe2O4,0.8862423528877494
NiCl2O4,1.4933089050926922
NiCo2O4,0.198416885262505
NiCr2O4,0.12402925446825286
NiCu2O4,0.25019131905783265
NiDy2O4,0.3740107925055298
NiEr2O4,0.34753944458505703
NiEu2O4,0.38093245827183253
NiFe2O4,0.24637534464865585
NiGa2O4,0.15662862115824794
NiGd2O4,0.4137478063991278
NiGe2O4,0.6840069320161799
NiHf2O4,0.9502841231697108
NiHg2O4,0.4126640807145008
NiHo2O4,0.36649048652011285
NiI2O4,0.7253360767903874
NiIn2O4,0.21368604428347027
NiIr2O4,0.5966997455762657
NiLa2O4,0.4727418474148548
NiLu2O4,0.32928844372003496
NiMg2O4,0.3866107312211904
NiMn2O4,0.21208180004592947
NiMo2O4,0.6197396704203353
NiNb2O4,0.7367414114736599
NiNd2O4,0.49845690397907827
NiNi2O4,0.49326751124927704
NiOs2O4,0.6255732517594366
NiP2O4,1.4390650126780997
NiPb2O4,0.3066895164830079
NiPd2O4,0.23183928941159238
NiPr2O4,0.47516159117553425
NiPt2O4,0.4813415319497212
NiRe2O4,0.7692574312344247
NiRh2O4,0.3901531501880884
NiRu2O4,0.5457909325910277
NiS2O4,2.1679150024517453
NiSb2O4,0.6652923244084361
NiSc2O4,0.25702079965347746
NiSe2O4,0.7940943046228144
NiSi2O4,1.216296118900381
NiSm2O4,0.44239767629514315
NiSn2O4,0.7344596484079338
NiSr2O4,0.5564886125319983
NiTa2O4,0.930611141173026
NiTb2O4,0.39988605635805374
NiTc2O4,0.6329705135950272
NiTe2O4,0.724946281986437
NiTi2O4,0.6217169548245733
NiTl2O4,0.3249097419067146
NiTm2O4,0.34737553532510734
NiV2O4,0.3800553945196832
NiW2O4,1.1360087107472348
NiY2O4,0.3608096062987034
NiYb2O4,error
NiZn2O4,0.39523678704708054
NiZr2O4,0.8848543463036034
OsAg2O4,0.22653922393035408
OsAl2O4,0.6056829159968196
OsAs2O4,0.7719491067295774
OsAu2O4,0.4917767171657266
OsB2O4,1.5338651466828823
OsBa2O4,0.48380783851812037
OsBe2O4,0.3802834076423478
OsBi2O4,0.4410854495878791
OsBr2O4,0.3163283179434968
OsC2O4,2.188858229860368
OsCa2O4,0.3148971443375679
OsCd2O4,0.25632515789189636
OsCe2O4,1.0686248189143068
OsCl2O4,0.3972622339447307
OsCo2O4,0.35051721824836424
OsCr2O4,0.5140578830930318
OsCs2O4,0.0
OsCu2O4,0.17677726426772988
OsDy2O4,0.805679737777707
OsEr2O4,0.8156031667684944
OsEu2O4,0.43310713941235335
OsFe2O4,0.4322426791391081
OsGa2O4,0.5254054406792505
OsGd2O4,0.80163051524681
OsGe2O4,0.8346160124659603
OsH2O4,0.9271246737340268
OsHf2O4,1.2991812008890822
OsHg2O4,0.030598622338659176
OsHo2O4,0.8024074281781965
OsI2O4,0.1973288363198069
OsIn2O4,0.5774302607943316
OsIr2O4,0.5872157000999714
OsK2O4,0.011300346253883653
OsLa2O4,0.8700022067711881
OsLi2O4,0.10233026072033358
OsLu2O4,0.8409396167148389
OsMg2O4,0.24993793929221297
OsMn2O4,0.18435445202201706
OsMo2O4,0.937027969858498
OsN2O4,1.6213522937607454
OsNa2O4,0.10186370470559059
OsNb2O4,0.9895089909427703
OsNd2O4,0.801390706433649
OsNi2O4,0.6954559221379473
OsOs2O4,0.6909755736587302
OsPb2O4,0.22061092601482812
OsPd2O4,0.3969585559545443
OsPr2O4,0.8233330119578772
OsPt2O4,0.7717091109479206
OsRb2O4,0.0
OsRe2O4,0.8348718747459074
OsRh2O4,0.2241729163726074
OsRu2O4,0.47045022551309224
OsSb2O4,0.7008777707358984
OsSc2O4,0.6505557482396256
OsSe2O4,0.31490128829208786
OsSi2O4,1.560727706091817
OsSm2O4,0.7866763540624788
OsSn2O4,0.6834932525529958
OsSr2O4,0.42113703626183874
OsTa2O4,1.2543316094497765
OsTb2O4,0.8219536240644638
OsTc2O4,0.6940180570498491
OsTe2O4,0.33398032841445247
OsTi2O4,0.9495905633833157
OsTl2O4,0.016539337587714087
OsTm2O4,0.8497999731371939
OsV2O4,0.4621813044840639
OsW2O4,1.6677705962479594
OsY2O4,0.7934833668187551
OsYb2O4,error
OsZn2O4,0.27617312194131394
OsZr2O4,1.2246364806499326
PAg2O4,0.05513821250815276
PAl2O4,0.648007718720371
PAs2O4,0.5224239747802892
PAu2O4,0.303554746481816
PB2O4,1.7108674869109484
PBa2O4,0.2898754121352356
PBe2O4,0.47021772964994923
PBi2O4,0.31179738097461307
PBr2O4,0.4810193455155014
PC2O4,1.6428202850999591
PCa2O4,0.3175257728450118
PCd2O4,0.16664196700124556
PCe2O4,0.6693204099455023
PCl2O4,0.6703339681256626
PCo2O4,0.20548551385361336
PCr2O4,0.6811308010505019
PCu2O4,0.11089987892675257
PDy2O4,0.9804638828118337
PEr2O4,0.9735698744825649
PEu2O4,0.33386981770171253
PFe2O4,0.26758870008959246
PGa2O4,0.7032241673290374
PGd2O4,0.7953769103773425
PGe2O4,0.3087489622908315
PHf2O4,1.1106241784134898
PHg2O4,0.14491642722712594
PHo2O4,0.9936379392740307
PI2O4,0.30726271197483257
PIn2O4,0.2026452402597485
PIr2O4,0.8795083608996324
PLa2O4,0.7933810746596253
PLu2O4,0.9700870268422923
PMg2O4,0.4264216250019972
PMn2O4,0.22748594180596982
PMo2O4,1.1242588277221621
PNb2O4,0.7620580118517806
PNd2O4,0.7558440396804151
PNi2O4,0.36920748192188757
POs2O4,0.8952501895668084
PP2O4,0.5642415341099456
PPb2O4,0.13715249544839647
PPd2O4,0.26625299135084735
PPr2O4,0.7670571188854671
PPt2O4,0.7682047284496702
PRe2O4,0.8736485602109774
PRh2O4,0.3504991170479812
PRu2O4,0.6497835776667955
PS2O4,0.9352425784462417
PSb2O4,0.0
PSc2O4,0.7822173745435883
PSe2O4,0.4261245540802632
PSi2O4,1.3358902572993054
PSm2O4,0.6803544465816351
PSn2O4,0.19772818579027884
PSr2O4,0.3364428813101048
PTa2O4,0.9909251444036915
PTb2O4,0.9376824807895625
PTc2O4,0.6335723961239461
PTe2O4,0.2511864959592822
PTi2O4,0.5685697942157448
PTl2O4,0.17070614364319514
PTm2O4,1.024880467550517
PV2O4,0.430223882792899
PW2O4,1.7209317643192792
PY2O4,0.9396817431085109
PYb2O4,error
PZn2O4,0.3317021785010139
PZr2O4,1.0773121491765938
PbAg2O4,0.14716128312106225
PbAl2O4,0.30756941177829145
PbAs2O4,0.3963999675912362
PbAu2O4,0.14256197729519293
PbB2O4,1.777136050308588
PbBa2O4,0.17157030865285083
PbBe2O4,0.3994811994701699
PbBi2O4,0.07910002729961718
PbBr2O4,0.6440957457628622
PbC2O4,2.1811868039356552
PbCa2O4,0.08299744782446261
PbCd2O4,0.06080500558978308
PbCe2O4,0.33807938579681984
PbCo2O4,0.07325510553790071
PbCr2O4,0.044834383845854475
PbCu2O4,0.11909950660586954
PbDy2O4,0.04395212742379684
PbEr2O4,0.044087270958464764
PbEu2O4,0.02817673044911828
PbFe2O4,0.08589025750262458
PbGa2O4,0.17972100334326324